# vtk DataFile Version 3.0
#This file was generated by the deal.II library on 2025/4/16 at 17:54:49
ASCII
DATASET UNSTRUCTURED_GRID

POINTS 8192 double
-0.35332 3.47278e-05 -0.353921
-0.461742 -0.00167332 -0.298199
-0.528591 -0.0100672 -0.529192
-0.639124 -0.00989942 -0.423793
-0.414134 -0.117306 -0.299906
-0.507651 -0.10577 -0.258234
-0.591087 -0.165822 -0.431932
-0.676928 -0.144508 -0.35608
-0.461742 -0.00167332 -0.298199
-0.568756 2.92707e-05 -0.235975
-0.639124 -0.00989942 -0.423793
-0.743583 -0.00567213 -0.311731
-0.507651 -0.10577 -0.258234
-0.600213 -0.0913669 -0.212326
-0.676928 -0.144508 -0.35608
-0.759097 -0.120656 -0.276752
-0.528591 -0.0100672 -0.529192
-0.639124 -0.00989942 -0.423793
-0.706884 2.83076e-05 -0.707461
-0.821362 -0.00284766 -0.548389
-0.591087 -0.165822 -0.431932
-0.676928 -0.144508 -0.35608
-0.773638 -0.202649 -0.563621
-0.851501 -0.174037 -0.451607
-0.639124 -0.00989942 -0.423793
-0.743583 -0.00567213 -0.311731
-0.821362 -0.00284766 -0.548389
-0.923597 2.57261e-05 -0.382932
-0.676928 -0.144508 -0.35608
-0.759097 -0.120656 -0.276752
-0.851501 -0.174037 -0.451607
-0.922558 -0.142827 -0.33731
-0.414134 -0.117306 -0.299906
-0.507651 -0.10577 -0.258234
-0.591087 -0.165822 -0.431932
-0.676928 -0.144508 -0.35608
-0.471145 -0.235613 -0.235981
-0.550455 -0.211133 -0.211501
-0.644936 -0.320026 -0.320395
-0.70855 -0.279049 -0.279418
-0.507651 -0.10577 -0.258234
-0.600213 -0.0913669 -0.212326
-0.676928 -0.144508 -0.35608
-0.759097 -0.120656 -0.276752
-0.550455 -0.211133 -0.211501
-0.629118 -0.184214 -0.184512
-0.70855 -0.279049 -0.279418
-0.770093 -0.23655 -0.236848
-0.591087 -0.165822 -0.431932
-0.676928 -0.144508 -0.35608
-0.773638 -0.202649 -0.563621
-0.851501 -0.174037 -0.451607
-0.644936 -0.320026 -0.320395
-0.70855 -0.279049 -0.279418
-0.824781 -0.399479 -0.399822
-0.87136 -0.34273 -0.343074
-0.676928 -0.144508 -0.35608
-0.759097 -0.120656 -0.276752
-0.851501 -0.174037 -0.451607
-0.922558 -0.142827 -0.33731
-0.70855 -0.279049 -0.279418
-0.770093 -0.23655 -0.236848
-0.87136 -0.34273 -0.343074
-0.914602 -0.285363 -0.285638
-0.568756 2.92707e-05 -0.235975
-0.536569 -0.00241295 -0.116029
-0.743583 -0.00567213 -0.311731
-0.74905 -0.0104254 -0.159142
-0.600213 -0.0913669 -0.212326
-0.57009 -0.105866 -0.106075
-0.759097 -0.120656 -0.276752
-0.757282 -0.142354 -0.142563
-0.536569 -0.00241295 -0.116029
-0.499676 3.52212e-05 -7.47752e-05
-0.74905 -0.0104254 -0.159142
-0.74536 -0.00990607 -0.0100161
-0.57009 -0.105866 -0.106075
-0.536557 -0.115816 -0.00251795
-0.757282 -0.142354 -0.142563
-0.749039 -0.158929 -0.0105304
-0.743583 -0.00567213 -0.311731
-0.74905 -0.0104254 -0.159142
-0.923597 2.57261e-05 -0.382932
-0.969068 -0.00330012 -0.190794
-0.759097 -0.120656 -0.276752
-0.757282 -0.142354 -0.142563
-0.922558 -0.142827 -0.33731
-0.950907 -0.169882 -0.170066
-0.74905 -0.0104254 -0.159142
-0.74536 -0.00990607 -0.0100161
-0.969068 -0.00330012 -0.190794
-0.999637 3.68257e-05 -6.44253e-05
-0.757282 -0.142354 -0.142563
-0.749039 -0.158929 -0.0105304
-0.950907 -0.169882 -0.170066
-0.969038 -0.190603 -0.00339421
-0.600213 -0.0913669 -0.212326
-0.57009 -0.105866 -0.106075
-0.759097 -0.120656 -0.276752
-0.757282 -0.142354 -0.142563
-0.629118 -0.184214 -0.184512
-0.600176 -0.211975 -0.091546
-0.770093 -0.23655 -0.236848
-0.759061 -0.276401 -0.120835
-0.57009 -0.105866 -0.106075
-0.536557 -0.115816 -0.00251795
-0.757282 -0.142354 -0.142563
-0.749039 -0.158929 -0.0105304
-0.600176 -0.211975 -0.091546
-0.568713 -0.23561 -6.24963e-05
-0.759061 -0.276401 -0.120835
-0.74354 -0.311366 -0.0057639
-0.759097 -0.120656 -0.276752
-0.757282 -0.142354 -0.142563
-0.922558 -0.142827 -0.33731
-0.950907 -0.169882 -0.170066
-0.770093 -0.23655 -0.236848
-0.759061 -0.276401 -0.120835
-0.914602 -0.285363 -0.285638
-0.922507 -0.336978 -0.142983
-0.757282 -0.142354 -0.142563
-0.749039 -0.158929 -0.0105304
-0.950907 -0.169882 -0.170066
-0.969038 -0.190603 -0.00339421
-0.759061 -0.276401 -0.120835
-0.74354 -0.311366 -0.0057639
-0.922507 -0.336978 -0.142983
-0.923525 -0.382583 -5.38683e-05
-0.471145 -0.235613 -0.235981
-0.550455 -0.211133 -0.211501
-0.644936 -0.320026 -0.320395
-0.70855 -0.279049 -0.279418
-0.414096 -0.299398 -0.117521
-0.507613 -0.257725 -0.105986
-0.591049 -0.431423 -0.166037
-0.67689 -0.355571 -0.144723
-0.550455 -0.211133 -0.211501
-0.629118 -0.184214 -0.184512
-0.70855 -0.279049 -0.279418
-0.770093 -0.23655 -0.236848
-0.507613 -0.257725 -0.105986
-0.600176 -0.211975 -0.091546
-0.67689 -0.355571 -0.144723
-0.759061 -0.276401 -0.120835
-0.644936 -0.320026 -0.320395
-0.70855 -0.279049 -0.279418
-0.824781 -0.399479 -0.399822
-0.87136 -0.34273 -0.343074
-0.591049 -0.431423 -0.166037
-0.67689 -0.355571 -0.144723
-0.773571 -0.563117 -0.202835
-0.851434 -0.451103 -0.174223
-0.70855 -0.279049 -0.279418
-0.770093 -0.23655 -0.236848
-0.87136 -0.34273 -0.343074
-0.914602 -0.285363 -0.285638
-0.67689 -0.355571 -0.144723
-0.759061 -0.276401 -0.120835
-0.851434 -0.451103 -0.174223
-0.922507 -0.336978 -0.142983
-0.414096 -0.299398 -0.117521
-0.507613 -0.257725 -0.105986
-0.591049 -0.431423 -0.166037
-0.67689 -0.355571 -0.144723
-0.353289 -0.353371 -7.15622e-05
-0.461711 -0.29765 -0.00177961
-0.528561 -0.528643 -0.0101735
-0.639093 -0.423244 -0.0100057
-0.507613 -0.257725 -0.105986
-0.600176 -0.211975 -0.091546
-0.67689 -0.355571 -0.144723
-0.759061 -0.276401 -0.120835
-0.461711 -0.29765 -0.00177961
-0.568713 -0.23561 -6.24963e-05
-0.639093 -0.423244 -0.0100057
-0.74354 -0.311366 -0.0057639
-0.591049 -0.431423 -0.166037
-0.67689 -0.355571 -0.144723
-0.773571 -0.563117 -0.202835
-0.851434 -0.451103 -0.174223
-0.528561 -0.528643 -0.0101735
-0.639093 -0.423244 -0.0100057
-0.706812 -0.706901 -6.26392e-05
-0.82129 -0.54783 -0.00293861
-0.67689 -0.355571 -0.144723
-0.759061 -0.276401 -0.120835
-0.851434 -0.451103 -0.174223
-0.922507 -0.336978 -0.142983
-0.639093 -0.423244 -0.0100057
-0.74354 -0.311366 -0.0057639
-0.82129 -0.54783 -0.00293861
-0.923525 -0.382583 -5.38683e-05
-0.35332 3.47278e-05 -0.353921
-0.461742 -0.00167332 -0.298199
-0.414134 -0.117306 -0.299906
-0.507651 -0.10577 -0.258234
-0.173928 -0.014457 -0.174409
-0.353489 -0.0141292 -0.152664
-0.294204 -0.154831 -0.155149
-0.431799 -0.134098 -0.134416
-0.461742 -0.00167332 -0.298199
-0.568756 2.92707e-05 -0.235975
-0.507651 -0.10577 -0.258234
-0.600213 -0.0913669 -0.212326
-0.353489 -0.0141292 -0.152664
-0.536569 -0.00241295 -0.116029
-0.431799 -0.134098 -0.134416
-0.57009 -0.105866 -0.106075
-0.414134 -0.117306 -0.299906
-0.507651 -0.10577 -0.258234
-0.471145 -0.235613 -0.235981
-0.550455 -0.211133 -0.211501
-0.294204 -0.154831 -0.155149
-0.431799 -0.134098 -0.134416
-0.414096 -0.299398 -0.117521
-0.507613 -0.257725 -0.105986
-0.507651 -0.10577 -0.258234
-0.600213 -0.0913669 -0.212326
-0.550455 -0.211133 -0.211501
-0.629118 -0.184214 -0.184512
-0.431799 -0.134098 -0.134416
-0.57009 -0.105866 -0.106075
-0.507613 -0.257725 -0.105986
-0.600176 -0.211975 -0.091546
-0.173928 -0.014457 -0.174409
-0.353489 -0.0141292 -0.152664
-0.294204 -0.154831 -0.155149
-0.431799 -0.134098 -0.134416
0.000159123 5.28567e-05 -0.000113593
-0.243637 -0.0125747 -0.0127411
-0.173975 -0.174081 -0.0146135
-0.353535 -0.152336 -0.0142857
-0.353489 -0.0141292 -0.152664
-0.536569 -0.00241295 -0.116029
-0.431799 -0.134098 -0.134416
-0.57009 -0.105866 -0.106075
-0.243637 -0.0125747 -0.0127411
-0.499676 3.52212e-05 -7.47752e-05
-0.353535 -0.152336 -0.0142857
-0.536557 -0.115816 -0.00251795
-0.294204 -0.154831 -0.155149
-0.431799 -0.134098 -0.134416
-0.414096 -0.299398 -0.117521
-0.507613 -0.257725 -0.105986
-0.173975 -0.174081 -0.0146135
-0.353535 -0.152336 -0.0142857
-0.353289 -0.353371 -7.15622e-05
-0.461711 -0.29765 -0.00177961
-0.431799 -0.134098 -0.134416
-0.57009 -0.105866 -0.106075
-0.507613 -0.257725 -0.105986
-0.600176 -0.211975 -0.091546
-0.353535 -0.152336 -0.0142857
-0.536557 -0.115816 -0.00251795
-0.461711 -0.29765 -0.00177961
-0.568713 -0.23561 -6.24963e-05
0.353376 -1.42874e-05 0.353896
0.411005 0.117647 0.285661
0.537241 -0.0281921 0.537761
0.596585 0.137244 0.402699
0.459816 -0.00426542 0.291431
0.503403 0.102384 0.243363
0.641477 -0.0301302 0.418134
0.678081 0.118465 0.329515
0.411005 0.117647 0.285661
0.471195 0.235632 0.235953
0.596585 0.137244 0.402699
0.660837 0.312196 0.312488
0.503403 0.102384 0.243363
0.548369 0.208409 0.208727
0.678081 0.118465 0.329515
0.717403 0.269642 0.269945
0.537241 -0.0281921 0.537761
0.596585 0.137244 0.402699
0.706946 -9.36989e-06 0.707437
0.757644 0.193308 0.52002
0.641477 -0.0301302 0.418134
0.678081 0.118465 0.329515
0.807711 -0.0161569 0.544824
0.831422 0.161692 0.422068
0.596585 0.137244 0.402699
0.660837 0.312196 0.312488
0.757644 0.193308 0.52002
0.816312 0.40818 0.408423
0.678081 0.118465 0.329515
0.717403 0.269642 0.269945
0.831422 0.161692 0.422068
0.859722 0.34667 0.34693
0.459816 -0.00426542 0.291431
0.503403 0.102384 0.243363
0.641477 -0.0301302 0.418134
0.678081 0.118465 0.329515
0.568805 -1.40654e-05 0.235951
0.598267 0.0930811 0.206123
0.753676 -0.0138316 0.304433
0.766396 0.108325 0.259105
0.503403 0.102384 0.243363
0.548369 0.208409 0.208727
0.678081 0.118465 0.329515
0.717403 0.269642 0.269945
0.598267 0.0930811 0.206123
0.628311 0.185097 0.185348
0.766396 0.108325 0.259105
0.780623 0.229476 0.229725
0.641477 -0.0301302 0.418134
0.678081 0.118465 0.329515
0.807711 -0.0161569 0.544824
0.831422 0.161692 0.422068
0.753676 -0.0138316 0.304433
0.766396 0.108325 0.259105
0.923649 -1.20576e-05 0.382904
0.917293 0.143658 0.322987
0.678081 0.118465 0.329515
0.717403 0.269642 0.269945
0.831422 0.161692 0.422068
0.859722 0.34667 0.34693
0.766396 0.108325 0.259105
0.780623 0.229476 0.229725
0.917293 0.143658 0.322987
0.913713 0.286876 0.287092
0.471195 0.235632 0.235953
0.410954 0.285199 0.117814
0.660837 0.312196 0.312488
0.596535 0.402255 0.137398
0.548369 0.208409 0.208727
0.503352 0.242902 0.10255
0.717403 0.269642 0.269945
0.67803 0.329064 0.118623
0.410954 0.285199 0.117814
0.353325 0.353391 3.62205e-05
0.596535 0.402255 0.137398
[...]
POINT_DATA 8192
SCALARS D_0 double 1
LOOKUP_TABLE default
5.85229e-05 5.13623e-05 6.78324e-05 5.57973e-05 5.15475e-05 4.78495e-05 5.72164e-05 5.14736e-05 5.13623e-05 4.65726e-05 5.57973e-05 4.95975e-05 4.78495e-05 4.55599e-05 5.14736e-05 4.84744e-05 6.78324e-05 5.57973e-05 5.6608e-05 4.62959e-05 5.72164e-05 5.14736e-05 4.71216e-05 4.37404e-05 5.57973e-05 4.95975e-05 4.62959e-05 4.36688e-05 5.14736e-05 4.84744e-05 4.37404e-05 4.43357e-05 5.15475e-05 4.78495e-05 5.72164e-05 5.14736e-05 4.58752e-05 4.50089e-05 4.91409e-05 4.82517e-05 4.78495e-05 4.55599e-05 5.14736e-05 4.84744e-05 4.50089e-05 4.4745e-05 4.82517e-05 4.75189e-05 5.72164e-05 5.14736e-05 4.71216e-05 4.37404e-05 4.91409e-05 4.82517e-05 4.33466e-05 4.36014e-05 5.14736e-05 4.84744e-05 4.37404e-05 4.43357e-05 4.82517e-05 4.75189e-05 4.36014e-05 4.47362e-05 4.65726e-05 4.06191e-05 4.95975e-05 4.68036e-05 4.55599e-05 4.109e-05 4.84744e-05 4.6708e-05 4.06191e-05 3.63129e-05 4.68036e-05 4.48513e-05 4.109e-05 3.78433e-05 4.6708e-05 4.55386e-05 4.95975e-05 4.68036e-05 4.36688e-05 4.70574e-05 4.84744e-05 4.6708e-05 4.43357e-05 4.69799e-05 4.68036e-05 4.48513e-05 4.70574e-05 4.91939e-05 4.6708e-05 4.55386e-05 4.69799e-05 4.84301e-05 4.55599e-05 4.109e-05 4.84744e-05 4.6708e-05 4.4745e-05 4.17531e-05 4.75189e-05 4.68715e-05 4.109e-05 3.78433e-05 4.6708e-05 4.55386e-05 4.17531e-05 3.96477e-05 4.68715e-05 4.64752e-05 4.84744e-05 4.6708e-05 4.43357e-05 4.69799e-05 4.75189e-05 4.68715e-05 4.47362e-05 4.70745e-05 4.6708e-05 4.55386e-05 4.69799e-05 4.84301e-05 4.68715e-05 4.64752e-05 4.70745e-05 4.77243e-05 4.58752e-05 4.50089e-05 4.91409e-05 4.82517e-05 3.95139e-05 4.0326e-05 4.60086e-05 4.63198e-05 4.50089e-05 4.4745e-05 4.82517e-05 4.75189e-05 4.0326e-05 4.17531e-05 4.63198e-05 4.68715e-05 4.91409e-05 4.82517e-05 4.33466e-05 4.36014e-05 4.60086e-05 4.63198e-05 4.54353e-05 4.60326e-05 4.82517e-05 4.75189e-05 4.36014e-05 4.47362e-05 4.63198e-05 4.68715e-05 4.60326e-05 4.70745e-05 3.95139e-05 4.0326e-05 4.60086e-05 4.63198e-05 3.61005e-05 3.76945e-05 4.45674e-05 4.49842e-05 4.0326e-05 4.17531e-05 4.63198e-05 4.68715e-05 3.76945e-05 3.96477e-05 4.49842e-05 4.64752e-05 4.60086e-05 4.63198e-05 4.54353e-05 4.60326e-05 4.45674e-05 4.49842e-05 4.91269e-05 4.7776e-05 4.63198e-05 4.68715e-05 4.60326e-05 4.70745e-05 4.49842e-05 4.64752e-05 4.7776e-05 4.77243e-05 5.85229e-05 5.13623e-05 5.15475e-05 4.78495e-05 3.3798e-05 3.63881e-05 3.56708e-05 3.82194e-05 5.13623e-05 4.65726e-05 4.78495e-05 4.55599e-05 3.63881e-05 4.06191e-05 3.82194e-05 4.109e-05 5.15475e-05 4.78495e-05 4.58752e-05 4.50089e-05 3.56708e-05 3.82194e-05 3.95139e-05 4.0326e-05 4.78495e-05 4.55599e-05 4.50089e-05 4.4745e-05 3.82194e-05 4.109e-05 4.0326e-05 4.17531e-05 3.3798e-05 3.63881e-05 3.56708e-05 3.82194e-05 3.09731e-06 2.05526e-05 2.07662e-05 2.94637e-05 3.63881e-05 4.06191e-05 3.82194e-05 4.109e-05 2.05526e-05 3.63129e-05 2.94637e-05 3.78433e-05 3.56708e-05 3.82194e-05 3.95139e-05 4.0326e-05 2.07662e-05 2.94637e-05 3.61005e-05 3.76945e-05 3.82194e-05 4.109e-05 4.0326e-05 4.17531e-05 2.94637e-05 3.78433e-05 3.76945e-05 3.96477e-05 5.39434e-05 4.50434e-05 6.25188e-05 4.95848e-05 4.57711e-05 4.13511e-05 4.94169e-05 4.42227e-05 4.50434e-05 3.98339e-05 4.95848e-05 4.10491e-05 4.13511e-05 3.87829e-05 4.42227e-05 4.07744e-05 6.25188e-05 4.95848e-05 5.29717e-05 3.981e-05 4.94169e-05 4.42227e-05 4.07221e-05 3.64772e-05 4.95848e-05 4.10491e-05 3.981e-05 3.39937e-05 4.42227e-05 4.07744e-05 3.64772e-05 3.57974e-05 4.57711e-05 4.13511e-05 4.94169e-05 4.42227e-05 4.10101e-05 3.95715e-05 4.27045e-05 4.14706e-05 4.13511e-05 3.87829e-05 4.42227e-05 4.07744e-05 3.95715e-05 3.87992e-05 4.14706e-05 4.07021e-05 4.94169e-05 4.42227e-05 4.07221e-05 3.64772e-05 4.27045e-05 4.14706e-05 3.59787e-05 3.71973e-05 4.42227e-05 4.07744e-05 3.64772e-05 3.57974e-05 4.14706e-05 4.07021e-05 3.71973e-05 3.73291e-05 3.98339e-05 3.34668e-05 4.10491e-05 3.8647e-05 3.87829e-05 3.45365e-05 4.07744e-05 3.99569e-05 3.34668e-05 3.16488e-05 3.8647e-05 3.99377e-05 3.45365e-05 3.30128e-05 3.99569e-05 4.09738e-05 4.10491e-05 3.8647e-05 3.39937e-05 3.82243e-05 4.07744e-05 3.99569e-05 3.57974e-05 4.03088e-05 3.8647e-05 3.99377e-05 3.82243e-05 4.3169e-05 3.99569e-05 4.09738e-05 4.03088e-05 4.33127e-05 3.87829e-05 3.45365e-05 4.07744e-05 3.99569e-05 3.87992e-05 3.6591e-05 4.07021e-05 4.15478e-05 3.45365e-05 3.30128e-05 3.99569e-05 4.09738e-05 3.6591e-05 3.55225e-05 4.15478e-05 4.28984e-05 4.07744e-05 3.99569e-05 3.57974e-05 4.03088e-05 4.07021e-05 4.15478e-05 3.73291e-05 4.15622e-05 3.99569e-05 4.09738e-05 4.03088e-05 4.33127e-05 4.15478e-05 4.28984e-05 4.15622e-05 4.46863e-05 4.10101e-05 3.95715e-05 4.27045e-05 4.14706e-05 3.56179e-05 3.56993e-05 4.09273e-05 4.07338e-05 3.95715e-05 3.87992e-05 4.14706e-05 4.07021e-05 3.56993e-05 3.6591e-05 4.07338e-05 4.15478e-05 4.27045e-05 4.14706e-05 3.59787e-05 3.71973e-05 4.09273e-05 4.07338e-05 4.07369e-05 4.13272e-05 4.14706e-05 4.07021e-05 3.71973e-05 3.73291e-05 4.07338e-05 4.15478e-05 4.13272e-05 4.15622e-05 3.56179e-05 3.56993e-05 4.09273e-05 4.07338e-05 3.20677e-05 3.35562e-05 4.0945e-05 4.18446e-05 3.56993e-05 3.6591e-05 4.07338e-05 4.15478e-05 3.35562e-05 3.55225e-05 4.18446e-05 4.28984e-05 4.09273e-05 4.07338e-05 4.07369e-05 4.13272e-05 4.0945e-05 4.18446e-05 4.4281e-05 4.46098e-05 4.07338e-05 4.15478e-05 4.13272e-05 4.15622e-05 4.18446e-05 4.28984e-05 4.46098e-05 4.46863e-05 5.39434e-05 4.50434e-05 4.57711e-05 4.13511e-05 3.0822e-05 2.80109e-05 3.06614e-05 3.13331e-05 4.50434e-05 3.98339e-05 4.13511e-05 3.87829e-05 2.80109e-05 3.34668e-05 3.13331e-05 3.45365e-05 4.57711e-05 4.13511e-05 4.10101e-05 3.95715e-05 3.06614e-05 3.13331e-05 3.56179e-05 3.56993e-05 4.13511e-05 3.87829e-05 3.95715e-05 3.87992e-05 3.13331e-05 3.45365e-05 3.56993e-05 3.6591e-05 3.0822e-05 2.80109e-05 3.06614e-05 3.13331e-05 3.09731e-06 1.73431e-05 1.68207e-05 2.52437e-05 2.80109e-05 3.34668e-05 3.13331e-05 3.45365e-05 1.73431e-05 3.16488e-05 2.52437e-05 3.30128e-05 3.06614e-05 3.13331e-05 3.56179e-05 3.56993e-05 1.68207e-05 2.52437e-05 3.20677e-05 3.35562e-05 3.13331e-05 3.45365e-05 3.56993e-05 3.6591e-05 2.52437e-05 3.30128e-05 3.35562e-05 3.55225e-05 7.25325e-05 7.50773e-05 8.97732e-05 8.79171e-05 7.53144e-05 7.74098e-05 8.7555e-05 8.63034e-05 7.50773e-05 7.61019e-05 8.79171e-05 8.23573e-05 7.74098e-05 7.78382e-05 8.63034e-05 8.28414e-05 8.97732e-05 8.79171e-05 9.03088e-05 8.88005e-05 8.7555e-05 8.63034e-05 8.83796e-05 8.73331e-05 8.79171e-05 8.23573e-05 8.88005e-05 8.17547e-05 8.63034e-05 8.28414e-05 8.73331e-05 8.02533e-05 7.53144e-05 7.74098e-05 8.7555e-05 8.63034e-05 7.55955e-05 7.76668e-05 8.2122e-05 8.31557e-05 7.74098e-05 7.78382e-05 8.63034e-05 8.28414e-05 7.76668e-05 7.8075e-05 8.31557e-05 8.11919e-05 8.7555e-05 8.63034e-05 8.83796e-05 8.73331e-05 8.2122e-05 8.31557e-05 8.03881e-05 8.06377e-05 8.63034e-05 8.28414e-05 8.73331e-05 8.02533e-05 8.31557e-05 8.11919e-05 8.06377e-05 7.85153e-05 7.61019e-05 6.63364e-05 8.23573e-05 7.41422e-05 7.78382e-05 6.98749e-05 8.28414e-05 7.64288e-05 6.63364e-05 5.50581e-05 7.41422e-05 6.33238e-05 6.98749e-05 6.02905e-05 7.64288e-05 6.83301e-05 8.23573e-05 7.41422e-05 8.17547e-05 6.74536e-05 8.28414e-05 7.64288e-05 8.02533e-05 7.1002e-05 7.41422e-05 6.33238e-05 6.74536e-05 5.41969e-05 7.64288e-05 6.83301e-05 7.1002e-05 6.04538e-05 7.78382e-05 6.98749e-05 8.28414e-05 7.64288e-05 7.8075e-05 7.20583e-05 8.11919e-05 7.61863e-05 6.98749e-05 6.02905e-05 7.64288e-05 6.83301e-05 7.20583e-05 6.50154e-05 7.61863e-05 7.07245e-05 8.28414e-05 7.64288e-05 8.02533e-05 7.1002e-05 8.11919e-05 7.61863e-05 7.85153e-05 7.17992e-05 7.64288e-05 6.83301e-05 7.1002e-05 6.04538e-05 7.61863e-05 7.07245e-05 7.17992e-05 6.31658e-05 7.55955e-05 7.76668e-05 8.2122e-05 8.31557e-05 6.51715e-05 6.89985e-05 7.38395e-05 7.65881e-05 7.76668e-05 7.8075e-05 8.31557e-05 8.11919e-05 6.89985e-05 7.20583e-05 7.65881e-05 7.61863e-05 8.2122e-05 8.31557e-05 8.03881e-05 8.06377e-05 7.38395e-05 7.65881e-05 6.76442e-05 7.11288e-05 8.31557e-05 8.11919e-05 8.06377e-05 7.85153e-05 7.65881e-05 7.61863e-05 7.11288e-05 7.17992e-05 6.51715e-05 6.89985e-05 7.38395e-05 7.65881e-05 5.3653e-05 5.88334e-05 6.21805e-05 6.75229e-05 6.89985e-05 7.20583e-05 7.65881e-05 7.61863e-05 5.88334e-05 6.50154e-05 6.75229e-05 7.07245e-05 7.38395e-05 7.65881e-05 6.76442e-05 7.11288e-05 6.21805e-05 6.75229e-05 5.23443e-05 5.91595e-05 7.65881e-05 7.61863e-05 7.11288e-05 7.17992e-05 6.75229e-05 7.07245e-05 5.91595e-05 6.31658e-05 7.25325e-05 7.50773e-05 7.53144e-05 7.74098e-05 4.08607e-05 5.45459e-05 5.47941e-05 6.28493e-05 7.50773e-05 7.61019e-05 7.74098e-05 7.78382e-05 5.45459e-05 6.63364e-05 6.28493e-05 6.98749e-05 7.53144e-05 7.74098e-05 7.55955e-05 7.76668e-05 5.47941e-05 6.28493e-05 6.51715e-05 6.89985e-05 7.74098e-05 7.78382e-05 7.76668e-05 7.8075e-05 6.28493e-05 6.98749e-05 6.89985e-05 7.20583e-05 4.08607e-05 5.45459e-05 5.47941e-05 6.28493e-05 3.09731e-06 3.01247e-05 3.0932e-05 4.55723e-05 5.45459e-05 6.63364e-05 6.28493e-05 6.98749e-05 3.01247e-05 5.50581e-05 4.55723e-05 6.02905e-05 5.47941e-05 6.28493e-05 6.51715e-05 6.89985e-05 3.0932e-05 4.55723e-05 5.3653e-05 5.88334e-05 6.28493e-05 6.98749e-05 6.89985e-05 7.20583e-05 4.55723e-05 6.02905e-05 5.88334e-05 6.50154e-05 7.75617e-05 8.06724e-05 9.76118e-05 9.48856e-05 8.05244e-05 8.30529e-05 9.48094e-05 9.36934e-05 8.06724e-05 8.07941e-05 9.48856e-05 8.78903e-05 8.30529e-05 8.32528e-05 9.36934e-05 8.87419e-05 9.76118e-05 9.48856e-05 9.91504e-05 9.75448e-05 9.48094e-05 9.36934e-05 9.54288e-05 9.42449e-05 9.48856e-05 8.78903e-05 9.75448e-05 8.63544e-05 9.36934e-05 8.87419e-05 9.42449e-05 8.70449e-05 8.05244e-05 8.30529e-05 9.48094e-05 9.36934e-05 8.04078e-05 8.30416e-05 8.80907e-05 8.9612e-05 8.30529e-05 8.32528e-05 9.36934e-05 8.87419e-05 8.30416e-05 8.35863e-05 8.9612e-05 8.76752e-05 9.48094e-05 9.36934e-05 9.54288e-05 9.42449e-05 8.80907e-05 8.9612e-05 8.60529e-05 8.84899e-05 9.36934e-05 8.87419e-05 9.42449e-05 8.70449e-05 8.9612e-05 8.76752e-05 8.84899e-05 8.39113e-05 8.07941e-05 6.98676e-05 8.78903e-05 7.87374e-05 8.32528e-05 7.4331e-05 8.87419e-05 8.20722e-05 6.98676e-05 5.75812e-05 7.87374e-05 6.72774e-05 7.4331e-05 6.40628e-05 8.20722e-05 7.35063e-05 8.78903e-05 7.87374e-05 8.63544e-05 7.12339e-05 8.87419e-05 8.20722e-05 8.70449e-05 7.64666e-05 7.87374e-05 6.72774e-05 7.12339e-05 5.77332e-05 8.20722e-05 7.35063e-05 7.64666e-05 6.53369e-05 8.32528e-05 7.4331e-05 8.87419e-05 8.20722e-05 8.35863e-05 7.66622e-05 8.76752e-05 8.26249e-05 7.4331e-05 6.40628e-05 8.20722e-05 7.35063e-05 7.66622e-05 6.86929e-05 8.26249e-05 7.6718e-05 8.87419e-05 8.20722e-05 8.70449e-05 7.64666e-05 8.76752e-05 8.26249e-05 8.39113e-05 7.7968e-05 8.20722e-05 7.35063e-05 7.64666e-05 6.53369e-05 8.26249e-05 7.6718e-05 7.7968e-05 6.91602e-05 8.04078e-05 8.30416e-05 8.80907e-05 8.9612e-05 6.92356e-05 7.38796e-05 7.84748e-05 8.29832e-05 8.30416e-05 8.35863e-05 8.9612e-05 8.76752e-05 7.38796e-05 7.66622e-05 8.29832e-05 8.26249e-05 8.80907e-05 8.9612e-05 8.60529e-05 8.84899e-05 7.84748e-05 8.29832e-05 7.18035e-05 7.83637e-05 8.9612e-05 8.76752e-05 8.84899e-05 8.39113e-05 8.29832e-05 8.26249e-05 7.83637e-05 7.7968e-05 6.92356e-05 7.38796e-05 7.84748e-05 8.29832e-05 5.67878e-05 6.34621e-05 6.7685e-05 7.42207e-05 7.38796e-05 7.66622e-05 8.29832e-05 8.26249e-05 6.34621e-05 6.86929e-05 7.42207e-05 7.6718e-05 7.84748e-05 8.29832e-05 7.18035e-05 7.83637e-05 6.7685e-05 7.42207e-05 5.64064e-05 6.73927e-05 8.29832e-05 8.26249e-05 7.83637e-05 7.7968e-05 7.42207e-05 7.6718e-05 6.73927e-05 6.91602e-05 7.75617e-05 8.06724e-05 8.05244e-05 8.30529e-05 4.21491e-05 5.7875e-05 5.80813e-05 6.76368e-05 8.06724e-05 8.07941e-05 8.30529e-05 8.32528e-05 5.7875e-05 6.98676e-05 6.76368e-05 7.4331e-05 8.05244e-05 8.30529e-05 8.04078e-05 8.30416e-05 5.80813e-05 6.76368e-05 6.92356e-05 7.38796e-05 8.30529e-05 8.32528e-05 8.30416e-05 8.35863e-05 6.76368e-05 7.4331e-05 7.38796e-05 7.66622e-05 4.21491e-05 5.7875e-05 5.80813e-05 6.76368e-05 3.09731e-06 3.28209e-05 3.33559e-05 4.99332e-05 5.7875e-05 6.98676e-05 6.76368e-05 7.4331e-05 3.28209e-05 5.75812e-05 4.99332e-05 6.40628e-05 5.80813e-05 6.76368e-05 6.92356e-05 7.38796e-05 3.33559e-05 4.99332e-05 5.67878e-05 6.34621e-05 6.76368e-05 7.4331e-05 7.38796e-05 7.66622e-05 4.99332e-05 6.40628e-05 6.34621e-05 6.86929e-05 5.52035e-05 4.77651e-05 6.34094e-05 5.32657e-05 4.8328e-05 4.45449e-05 5.24142e-05 4.82902e-05 4.77651e-05 4.25035e-05 5.32657e-05 4.56595e-05 4.45449e-05 4.18647e-05 4.82902e-05 4.50173e-05 6.34094e-05 5.32657e-05 5.49688e-05 4.42654e-05 5.24142e-05 4.82902e-05 4.43285e-05 4.11946e-05 5.32657e-05 4.56595e-05 4.42654e-05 3.92658e-05 4.82902e-05 4.50173e-05 4.11946e-05 4.02526e-05 4.8328e-05 4.45449e-05 5.24142e-05 4.82902e-05 4.39935e-05 4.28505e-05 4.67731e-05 4.58942e-05 4.45449e-05 4.18647e-05 4.82902e-05 4.50173e-05 4.28505e-05 4.2076e-05 4.58942e-05 4.47802e-05 5.24142e-05 4.82902e-05 4.43285e-05 4.11946e-05 4.67731e-05 4.58942e-05 4.11919e-05 4.19869e-05 4.82902e-05 4.50173e-05 4.11946e-05 4.02526e-05 4.58942e-05 4.47802e-05 4.19869e-05 4.19426e-05 4.25035e-05 3.54752e-05 4.56595e-05 4.16076e-05 4.18647e-05 3.66955e-05 4.50173e-05 4.28174e-05 3.54752e-05 3.27036e-05 4.16076e-05 4.0812e-05 3.66955e-05 3.433e-05 4.28174e-05 4.18633e-05 4.56595e-05 4.16076e-05 3.92658e-05 4.14119e-05 4.50173e-05 4.28174e-05 4.02526e-05 4.31702e-05 4.16076e-05 4.0812e-05 4.14119e-05 4.46886e-05 4.28174e-05 4.18633e-05 4.31702e-05 4.49047e-05 4.18647e-05 3.66955e-05 4.50173e-05 4.28174e-05 4.2076e-05 3.90266e-05 4.47802e-05 4.4615e-05 3.66955e-05 3.433e-05 4.28174e-05 4.18633e-05 3.90266e-05 3.70967e-05 4.4615e-05 4.41467e-05 4.50173e-05 4.28174e-05 4.02526e-05 4.31702e-05 4.47802e-05 4.4615e-05 4.19426e-05 4.44511e-05 4.28174e-05 4.18633e-05 4.31702e-05 4.49047e-05 4.4615e-05 4.41467e-05 4.44511e-05 4.64202e-05 4.39935e-05 4.28505e-05 4.67731e-05 4.58942e-05 3.84172e-05 3.855e-05 4.44972e-05 4.43392e-05 4.28505e-05 4.2076e-05 4.58942e-05 4.47802e-05 3.855e-05 3.90266e-05 4.43392e-05 4.4615e-05 4.67731e-05 4.58942e-05 4.11919e-05 4.19869e-05 4.44972e-05 4.43392e-05 4.46532e-05 4.58148e-05 4.58942e-05 4.47802e-05 4.19869e-05 4.19426e-05 4.43392e-05 4.4615e-05 4.58148e-05 4.44511e-05 3.84172e-05 3.855e-05 4.44972e-05 4.43392e-05 3.45607e-05 3.56123e-05 4.29533e-05 4.3779e-05 3.855e-05 3.90266e-05 4.43392e-05 4.4615e-05 3.56123e-05 3.70967e-05 4.3779e-05 4.41467e-05 4.44972e-05 4.43392e-05 4.46532e-05 4.58148e-05 4.29533e-05 4.3779e-05 4.73105e-05 4.71233e-05 4.43392e-05 4.4615e-05 4.58148e-05 4.44511e-05 4.3779e-05 4.41467e-05 4.71233e-05 4.64202e-05 5.52035e-05 4.77651e-05 4.8328e-05 4.45449e-05 2.98733e-05 3.03314e-05 3.24878e-05 3.40512e-05 4.77651e-05 4.25035e-05 4.45449e-05 4.18647e-05 3.03314e-05 3.54752e-05 3.40512e-05 3.66955e-05 4.8328e-05 4.45449e-05 4.39935e-05 4.28505e-05 3.24878e-05 3.40512e-05 3.84172e-05 3.855e-05 4.45449e-05 4.18647e-05 4.28505e-05 4.2076e-05 3.40512e-05 3.66955e-05 3.855e-05 3.90266e-05 2.98733e-05 3.03314e-05 3.24878e-05 3.40512e-05 3.09731e-06 1.73114e-05 1.89228e-05 2.65436e-05 3.03314e-05 3.54752e-05 3.40512e-05 3.66955e-05 1.73114e-05 3.27036e-05 2.65436e-05 3.433e-05 3.24878e-05 3.40512e-05 3.84172e-05 3.855e-05 1.89228e-05 2.65436e-05 3.45607e-05 3.56123e-05 3.40512e-05 3.66955e-05 3.855e-05 3.90266e-05 2.65436e-05 3.433e-05 3.56123e-05 3.70967e-05 3.47495e-05 3.83475e-05 4.20323e-05 4.39798e-05 3.58733e-05 3.89335e-05 4.2626e-05 4.45358e-05 3.83475e-05 4.51775e-05 4.39798e-05 4.89028e-05 3.89335e-05 4.41823e-05 4.45358e-05 4.73059e-05 4.20323e-05 4.39798e-05 4.48521e-05 4.35543e-05 4.2626e-05 4.45358e-05 4.4826e-05 4.41104e-05 4.39798e-05 4.89028e-05 4.35543e-05 4.17736e-05 4.45358e-05 4.73059e-05 4.41104e-05 4.20523e-05 3.58733e-05 3.89335e-05 4.2626e-05 4.45358e-05 3.77712e-05 4.01053e-05 4.47706e-05 4.49991e-05 3.89335e-05 4.41823e-05 4.45358e-05 4.73059e-05 4.01053e-05 4.36013e-05 4.49991e-05 4.6237e-05 4.2626e-05 4.45358e-05 4.4826e-05 4.41104e-05 4.47706e-05 4.49991e-05 4.53421e-05 4.52667e-05 4.45358e-05 4.73059e-05 4.41104e-05 4.20523e-05 4.49991e-05 4.6237e-05 4.52667e-05 4.2648e-05 4.51775e-05 5.11509e-05 4.89028e-05 5.86156e-05 4.41823e-05 4.71334e-05 4.73059e-05 5.17435e-05 5.11509e-05 5.81323e-05 5.86156e-05 6.92647e-05 4.71334e-05 5.06354e-05 5.17435e-05 5.61541e-05 4.89028e-05 5.86156e-05 4.17736e-05 4.86211e-05 4.73059e-05 5.17435e-05 4.20523e-05 4.3535e-05 5.86156e-05 6.92647e-05 4.86211e-05 5.87416e-05 5.17435e-05 5.61541e-05 4.3535e-05 4.68273e-05 4.41823e-05 4.71334e-05 4.73059e-05 5.17435e-05 4.36013e-05 4.45473e-05 4.6237e-05 4.80845e-05 4.71334e-05 5.06354e-05 5.17435e-05 5.61541e-05 4.45473e-05 4.54667e-05 4.80845e-05 4.92058e-05 4.73059e-05 5.17435e-05 4.20523e-05 4.3535e-05 4.6237e-05 4.80845e-05 4.2648e-05 4.31e-05 5.17435e-05 5.61541e-05 4.3535e-05 4.68273e-05 4.80845e-05 4.92058e-05 4.31e-05 4.33153e-05 3.77712e-05 4.01053e-05 4.47706e-05 4.49991e-05 3.55169e-05 3.93412e-05 4.34831e-05 4.52441e-05 4.01053e-05 4.36013e-05 4.49991e-05 4.6237e-05 3.93412e-05 4.45473e-05 4.52441e-05 4.80845e-05 4.47706e-05 4.49991e-05 4.53421e-05 4.52667e-05 4.34831e-05 4.52441e-05 4.6491e-05 4.55988e-05 4.49991e-05 4.6237e-05 4.52667e-05 4.2648e-05 4.52441e-05 4.80845e-05 4.55988e-05 4.31e-05 3.55169e-05 3.93412e-05 4.34831e-05 4.52441e-05 3.35547e-05 3.86167e-05 4.25172e-05 4.55856e-05 3.93412e-05 4.45473e-05 4.52441e-05 4.80845e-05 3.86167e-05 4.54667e-05 4.55856e-05 4.92058e-05 4.34831e-05 4.52441e-05 4.6491e-05 4.55988e-05 4.25172e-05 4.55856e-05 4.59634e-05 4.58758e-05 4.52441e-05 4.80845e-05 4.55988e-05 4.31e-05 4.55856e-05 4.92058e-05 4.58758e-05 4.33153e-05 3.47495e-05 3.83475e-05 3.58733e-05 3.89335e-05 1.98808e-05 3.51301e-05 2.76725e-05 3.70339e-05 3.83475e-05 4.51775e-05 3.89335e-05 4.41823e-05 3.51301e-05 5.11509e-05 3.70339e-05 4.71334e-05 3.58733e-05 3.89335e-05 3.77712e-05 4.01053e-05 2.76725e-05 3.70339e-05 3.55169e-05 3.93412e-05 3.89335e-05 4.41823e-05 4.01053e-05 4.36013e-05 3.70339e-05 4.71334e-05 3.93412e-05 4.45473e-05 1.98808e-05 3.51301e-05 2.76725e-05 3.70339e-05 3.09731e-06 3.4475e-05 1.87674e-05 3.54804e-05 3.51301e-05 5.11509e-05 3.70339e-05 4.71334e-05 3.4475e-05 5.81323e-05 3.54804e-05 5.06354e-05 2.76725e-05 3.70339e-05 3.55169e-05 3.93412e-05 1.87674e-05 3.54804e-05 3.35547e-05 3.86167e-05 3.70339e-05 4.71334e-05 3.93412e-05 4.45473e-05 3.54804e-05 5.06354e-05 3.86167e-05 4.54667e-05 3.47495e-05 3.58733e-05 4.20323e-05 4.2626e-05 3.66796e-05 3.7576e-05 4.24964e-05 4.33356e-05 3.58733e-05 3.77712e-05 4.2626e-05 4.47706e-05 3.7576e-05 3.90859e-05 4.33356e-05 4.44507e-05 4.20323e-05 4.2626e-05 4.48521e-05 4.4826e-05 4.24964e-05 4.33356e-05 4.45702e-05 4.50891e-05 4.2626e-05 4.47706e-05 4.4826e-05 4.53421e-05 4.33356e-05 4.44507e-05 4.50891e-05 4.56811e-05 3.66796e-05 3.7576e-05 4.24964e-05 4.33356e-05 4.1967e-05 4.12121e-05 4.57012e-05 4.52394e-05 3.7576e-05 3.90859e-05 4.33356e-05 4.44507e-05 4.12121e-05 4.14291e-05 4.52394e-05 4.46539e-05 4.24964e-05 4.33356e-05 4.45702e-05 4.50891e-05 4.57012e-05 4.52394e-05 4.07207e-05 4.13437e-05 4.33356e-05 4.44507e-05 4.50891e-05 4.56811e-05 4.52394e-05 4.46539e-05 4.13437e-05 4.20595e-05 3.77712e-05 3.55169e-05 4.47706e-05 4.34831e-05 3.90859e-05 3.74158e-05 4.44507e-05 4.34053e-05 3.55169e-05 3.35547e-05 4.34831e-05 4.25172e-05 3.74158e-05 3.66015e-05 4.34053e-05 4.29933e-05 4.47706e-05 4.34831e-05 4.53421e-05 4.6491e-05 4.44507e-05 4.34053e-05 4.56811e-05 4.49679e-05 4.34831e-05 4.25172e-05 4.6491e-05 4.59634e-05 4.34053e-05 4.29933e-05 4.49679e-05 4.4031e-05 3.90859e-05 3.74158e-05 4.44507e-05 4.34053e-05 4.14291e-05 4.11307e-05 4.46539e-05 4.46417e-05 3.74158e-05 3.66015e-05 4.34053e-05 4.29933e-05 4.11307e-05 4.15327e-05 4.46417e-05 4.44983e-05 4.44507e-05 4.34053e-05 4.56811e-05 4.49679e-05 4.46539e-05 4.46417e-05 4.20595e-05 4.13341e-05 4.34053e-05 4.29933e-05 4.49679e-05 4.4031e-05 4.46417e-05 4.44983e-05 4.13341e-05 3.94957e-05 4.1967e-05 4.12121e-05 4.57012e-05 4.52394e-05 4.63838e-05 4.25663e-05 5.28135e-05 4.69904e-05 4.12121e-05 4.14291e-05 4.52394e-05 4.46539e-05 4.25663e-05 4.11307e-05 4.69904e-05 4.