# vtk DataFile Version 3.0
#This file was generated by the deal.II library on 2025/4/17 at 14:10:52
ASCII
DATASET UNSTRUCTURED_GRID

POINTS 8192 double
-0.353436 1.712e-05 -0.353737
-0.461858 -0.00169093 -0.298016
-0.528708 -0.0100848 -0.529009
-0.63924 -0.00991702 -0.42361
-0.414251 -0.117323 -0.299723
-0.507767 -0.105788 -0.25805
-0.591204 -0.165839 -0.431748
-0.677044 -0.144525 -0.355896
-0.461858 -0.00169093 -0.298016
-0.568895 1.43837e-05 -0.235839
-0.63924 -0.00991702 -0.42361
-0.743722 -0.00568702 -0.311594
-0.507767 -0.105788 -0.25805
-0.600353 -0.0913818 -0.21219
-0.677044 -0.144525 -0.355896
-0.759237 -0.120671 -0.276616
-0.528708 -0.0100848 -0.529009
-0.63924 -0.00991702 -0.42361
-0.706995 1.38863e-05 -0.707284
-0.821473 -0.00286208 -0.548212
-0.591204 -0.165839 -0.431748
-0.677044 -0.144525 -0.355896
-0.773749 -0.202664 -0.563444
-0.851612 -0.174052 -0.45143
-0.63924 -0.00991702 -0.42361
-0.743722 -0.00568702 -0.311594
-0.821473 -0.00286208 -0.548212
-0.923738 1.26024e-05 -0.382807
-0.677044 -0.144525 -0.355896
-0.759237 -0.120671 -0.276616
-0.851612 -0.174052 -0.45143
-0.9227 -0.14284 -0.337186
-0.414251 -0.117323 -0.299723
-0.507767 -0.105788 -0.25805
-0.591204 -0.165839 -0.431748
-0.677044 -0.144525 -0.355896
-0.471275 -0.235658 -0.235842
-0.550584 -0.211178 -0.211362
-0.645065 -0.320071 -0.320255
-0.70868 -0.279094 -0.279278
-0.507767 -0.105788 -0.25805
-0.600353 -0.0913818 -0.21219
-0.677044 -0.144525 -0.355896
-0.759237 -0.120671 -0.276616
-0.550584 -0.211178 -0.211362
-0.629265 -0.184253 -0.184401
-0.70868 -0.279094 -0.279278
-0.77024 -0.236589 -0.236738
-0.591204 -0.165839 -0.431748
-0.677044 -0.144525 -0.355896
-0.773749 -0.202664 -0.563444
-0.851612 -0.174052 -0.45143
-0.645065 -0.320071 -0.320255
-0.70868 -0.279094 -0.279278
-0.824911 -0.399522 -0.399694
-0.871491 -0.342774 -0.342945
-0.677044 -0.144525 -0.355896
-0.759237 -0.120671 -0.276616
-0.851612 -0.174052 -0.45143
-0.9227 -0.14284 -0.337186
-0.70868 -0.279094 -0.279278
-0.77024 -0.236589 -0.236738
-0.871491 -0.342774 -0.342945
-0.914752 -0.285402 -0.285539
-0.568895 1.43837e-05 -0.235839
-0.536725 -0.0024283 -0.11594
-0.743722 -0.00568702 -0.311594
-0.749206 -0.0104407 -0.159053
-0.600353 -0.0913818 -0.21219
-0.570246 -0.105881 -0.105985
-0.759237 -0.120671 -0.276616
-0.757438 -0.142369 -0.142473
-0.536725 -0.0024283 -0.11594
-0.499838 1.7411e-05 -3.72797e-05
-0.749206 -0.0104407 -0.159053
-0.745522 -0.00992388 -0.00997857
-0.570246 -0.105881 -0.105985
-0.536719 -0.115833 -0.00248045
-0.757438 -0.142369 -0.142473
-0.749201 -0.158946 -0.0104929
-0.743722 -0.00568702 -0.311594
-0.749206 -0.0104407 -0.159053
-0.923738 1.26024e-05 -0.382807
-0.969234 -0.0033152 -0.190717
-0.759237 -0.120671 -0.276616
-0.757438 -0.142369 -0.142473
-0.9227 -0.14284 -0.337186
-0.951073 -0.169897 -0.169988
-0.749206 -0.0104407 -0.159053
-0.745522 -0.00992388 -0.00997857
-0.969234 -0.0033152 -0.190717
-0.999818 1.81926e-05 -3.20886e-05
-0.757438 -0.142369 -0.142473
-0.749201 -0.158946 -0.0104929
-0.951073 -0.169897 -0.169988
-0.969219 -0.190622 -0.00336187
-0.600353 -0.0913818 -0.21219
-0.570246 -0.105881 -0.105985
-0.759237 -0.120671 -0.276616
-0.757438 -0.142369 -0.142473
-0.629265 -0.184253 -0.184401
-0.600334 -0.212014 -0.091471
-0.77024 -0.236589 -0.236738
-0.759219 -0.27644 -0.12076
-0.570246 -0.105881 -0.105985
-0.536719 -0.115833 -0.00248045
-0.757438 -0.142369 -0.142473
-0.749201 -0.158946 -0.0104929
-0.600334 -0.212014 -0.091471
-0.568874 -0.235656 -3.11798e-05
-0.759219 -0.27644 -0.12076
-0.743701 -0.311412 -0.00573258
-0.759237 -0.120671 -0.276616
-0.757438 -0.142369 -0.142473
-0.9227 -0.14284 -0.337186
-0.951073 -0.169897 -0.169988
-0.77024 -0.236589 -0.236738
-0.759219 -0.27644 -0.12076
-0.914752 -0.285402 -0.285539
-0.922674 -0.33702 -0.142918
-0.757438 -0.142369 -0.142473
-0.749201 -0.158946 -0.0104929
-0.951073 -0.169897 -0.169988
-0.969219 -0.190622 -0.00336187
-0.759219 -0.27644 -0.12076
-0.743701 -0.311412 -0.00573258
-0.922674 -0.33702 -0.142918
-0.923702 -0.382633 -2.68579e-05
-0.471275 -0.235658 -0.235842
-0.550584 -0.211178 -0.211362
-0.645065 -0.320071 -0.320255
-0.70868 -0.279094 -0.279278
-0.414232 -0.299468 -0.117431
-0.507748 -0.257796 -0.105895
-0.591185 -0.431493 -0.165946
-0.677025 -0.355642 -0.144633
-0.550584 -0.211178 -0.211362
-0.629265 -0.184253 -0.184401
-0.70868 -0.279094 -0.279278
-0.77024 -0.236589 -0.236738
-0.507748 -0.257796 -0.105895
-0.600334 -0.212014 -0.091471
-0.677025 -0.355642 -0.144633
-0.759219 -0.27644 -0.12076
-0.645065 -0.320071 -0.320255
-0.70868 -0.279094 -0.279278
-0.824911 -0.399522 -0.399694
-0.871491 -0.342774 -0.342945
-0.591185 -0.431493 -0.165946
-0.677025 -0.355642 -0.144633
-0.773716 -0.563192 -0.202756
-0.851579 -0.451178 -0.174144
-0.70868 -0.279094 -0.279278
-0.77024 -0.236589 -0.236738
-0.871491 -0.342774 -0.342945
-0.914752 -0.285402 -0.285539
-0.677025 -0.355642 -0.144633
-0.759219 -0.27644 -0.12076
-0.851579 -0.451178 -0.174144
-0.922674 -0.33702 -0.142918
-0.414232 -0.299468 -0.117431
-0.507748 -0.257796 -0.105895
-0.591185 -0.431493 -0.165946
-0.677025 -0.355642 -0.144633
-0.353421 -0.353462 -3.5775e-05
-0.461843 -0.297741 -0.00174382
-0.528692 -0.528734 -0.0101377
-0.639225 -0.423335 -0.00996992
-0.507748 -0.257796 -0.105895
-0.600334 -0.212014 -0.091471
-0.677025 -0.355642 -0.144633
-0.759219 -0.27644 -0.12076
-0.461843 -0.297741 -0.00174382
-0.568874 -0.235656 -3.11798e-05
-0.639225 -0.423335 -0.00996992
-0.743701 -0.311412 -0.00573258
-0.591185 -0.431493 -0.165946
-0.677025 -0.355642 -0.144633
-0.773716 -0.563192 -0.202756
-0.851579 -0.451178 -0.174144
-0.528692 -0.528734 -0.0101377
-0.639225 -0.423335 -0.00996992
-0.706959 -0.707004 -3.13041e-05
-0.821438 -0.547932 -0.00290727
-0.677025 -0.355642 -0.144633
-0.759219 -0.27644 -0.12076
-0.851579 -0.451178 -0.174144
-0.922674 -0.33702 -0.142918
-0.639225 -0.423335 -0.00996992
-0.743701 -0.311412 -0.00573258
-0.821438 -0.547932 -0.00290727
-0.923702 -0.382633 -2.68579e-05
-0.353436 1.712e-05 -0.353737
-0.461858 -0.00169093 -0.298016
-0.414251 -0.117323 -0.299723
-0.507767 -0.105788 -0.25805
-0.174031 -0.0144787 -0.174271
-0.353591 -0.0141508 -0.152526
-0.294306 -0.154853 -0.155011
-0.431902 -0.13412 -0.134278
-0.461858 -0.00169093 -0.298016
-0.568895 1.43837e-05 -0.235839
-0.507767 -0.105788 -0.25805
-0.600353 -0.0913818 -0.21219
-0.353591 -0.0141508 -0.152526
-0.536725 -0.0024283 -0.11594
-0.431902 -0.13412 -0.134278
-0.570246 -0.105881 -0.105985
-0.414251 -0.117323 -0.299723
-0.507767 -0.105788 -0.25805
-0.471275 -0.235658 -0.235842
-0.550584 -0.211178 -0.211362
-0.294306 -0.154853 -0.155011
-0.431902 -0.13412 -0.134278
-0.414232 -0.299468 -0.117431
-0.507748 -0.257796 -0.105895
-0.507767 -0.105788 -0.25805
-0.600353 -0.0913818 -0.21219
-0.550584 -0.211178 -0.211362
-0.629265 -0.184253 -0.184401
-0.431902 -0.13412 -0.134278
-0.570246 -0.105881 -0.105985
-0.507748 -0.257796 -0.105895
-0.600334 -0.212014 -0.091471
-0.174031 -0.0144787 -0.174271
-0.353591 -0.0141508 -0.152526
-0.294306 -0.154853 -0.155011
-0.431902 -0.13412 -0.134278
7.98174e-05 2.62614e-05 -5.67852e-05
-0.243716 -0.0126012 -0.0126843
-0.174054 -0.174108 -0.0145567
-0.353615 -0.152363 -0.0142289
-0.353591 -0.0141508 -0.152526
-0.536725 -0.0024283 -0.11594
-0.431902 -0.13412 -0.134278
-0.570246 -0.105881 -0.105985
-0.243716 -0.0126012 -0.0126843
-0.499838 1.7411e-05 -3.72797e-05
-0.353615 -0.152363 -0.0142289
-0.536719 -0.115833 -0.00248045
-0.294306 -0.154853 -0.155011
-0.431902 -0.13412 -0.134278
-0.414232 -0.299468 -0.117431
-0.507748 -0.257796 -0.105895
-0.174054 -0.174108 -0.0145567
-0.353615 -0.152363 -0.0142289
-0.353421 -0.353462 -3.5775e-05
-0.461843 -0.297741 -0.00174382
-0.431902 -0.13412 -0.134278
-0.570246 -0.105881 -0.105985
-0.507748 -0.257796 -0.105895
-0.600334 -0.212014 -0.091471
-0.353615 -0.152363 -0.0142289
-0.536719 -0.115833 -0.00248045
-0.461843 -0.297741 -0.00174382
-0.568874 -0.235656 -3.11798e-05
0.353465 -7.19139e-06 0.353724
0.411094 0.117654 0.285489
0.53733 -0.028185 0.537589
0.596674 0.137251 0.402528
0.459905 -0.00425832 0.291259
0.503492 0.102391 0.243191
0.641566 -0.0301231 0.417962
0.67817 0.118472 0.329344
0.411094 0.117654 0.285489
0.4713 0.235667 0.235828
0.596674 0.137251 0.402528
0.660942 0.312231 0.312363
0.503492 0.102391 0.243191
0.548474 0.208444 0.208602
0.67817 0.118472 0.329344
0.717509 0.269677 0.269819
0.53733 -0.028185 0.537589
0.596674 0.137251 0.402528
0.707027 -4.72572e-06 0.707271
0.757725 0.193313 0.519855
0.641566 -0.0301231 0.417962
0.67817 0.118472 0.329344
0.807791 -0.0161522 0.544659
0.831502 0.161696 0.421903
0.596674 0.137251 0.402528
0.660942 0.312231 0.312363
0.757725 0.193313 0.519855
0.816417 0.408213 0.408311
0.67817 0.118472 0.329344
0.717509 0.269677 0.269819
0.831502 0.161696 0.421903
0.859827 0.346703 0.346818
0.459905 -0.00425832 0.291259
0.503492 0.102391 0.243191
0.641566 -0.0301231 0.417962
0.67817 0.118472 0.329344
0.56892 -7.07039e-06 0.235826
0.598383 0.0930881 0.205998
0.753791 -0.0138246 0.304308
0.766512 0.108332 0.25898
0.503492 0.102391 0.243191
0.548474 0.208444 0.208602
0.67817 0.118472 0.329344
0.717509 0.269677 0.269819
0.598383 0.0930881 0.205998
0.628436 0.185128 0.185251
0.766512 0.108332 0.25898
0.780748 0.229507 0.229628
0.641566 -0.0301231 0.417962
0.67817 0.118472 0.329344
0.807791 -0.0161522 0.544659
0.831502 0.161696 0.421903
0.753791 -0.0138246 0.304308
0.766512 0.108332 0.25898
0.923764 -6.06073e-06 0.382793
0.917409 0.143664 0.322877
0.67817 0.118472 0.329344
0.717509 0.269677 0.269819
0.831502 0.161696 0.421903
0.859827 0.346703 0.346818
0.766512 0.108332 0.25898
0.780748 0.229507 0.229628
0.917409 0.143664 0.322877
0.913841 0.286907 0.287011
0.4713 0.235667 0.235828
0.411069 0.285258 0.117737
0.660942 0.312231 0.312363
0.596649 0.402314 0.137322
0.548474 0.208444 0.208602
0.503467 0.242961 0.102473
0.717509 0.269677 0.269819
0.678145 0.329123 0.118547
0.411069 0.285258 0.117737
0.353439 0.353472 1.79409e-05
0.596649 0.402314 0.137322
0.537304 0.537337 -0.0281599
[...]
POINT_DATA 8192
SCALARS A_0 double 1
LOOKUP_TABLE default
1.00142 0.999863 1.00303 0.99961 0.999832 0.997637 0.999927 0.996182 0.999863 0.997517 0.99961 0.99457 0.997637 0.995098 0.996182 0.994491 1.00303 0.99961 1.00615 0.999634 0.999927 0.996182 0.999903 0.995574 0.99961 0.99457 0.999634 0.996255 0.996182 0.994491 0.995574 0.992703 0.999832 0.997637 0.999927 0.996182 0.99795 0.99699 0.996129 0.996462 0.997637 0.995098 0.996182 0.994491 0.99699 0.99595 0.996462 0.99384 0.999927 0.996182 0.999903 0.995574 0.996129 0.996462 0.995528 0.992765 0.996182 0.994491 0.995574 0.992703 0.996462 0.99384 0.992765 0.992162 0.997517 0.996516 0.99457 0.993829 0.995098 0.995115 0.994491 0.993528 0.996516 0.996741 0.993829 0.992238 0.995115 0.994775 0.993528 0.992581 0.99457 0.993829 0.996255 0.991602 0.994491 0.993528 0.992703 0.98824 0.993829 0.992238 0.991602 0.988864 0.993528 0.992581 0.98824 0.989627 0.995098 0.995115 0.994491 0.993528 0.99595 0.996107 0.99384 0.993039 0.995115 0.994775 0.993528 0.992581 0.996107 0.994211 0.993039 0.992188 0.994491 0.993528 0.992703 0.98824 0.99384 0.993039 0.992162 0.990749 0.993528 0.992581 0.98824 0.989627 0.993039 0.992188 0.990749 0.988731 0.99795 0.99699 0.996129 0.996462 0.996809 0.995726 0.994548 0.993405 0.99699 0.99595 0.996462 0.99384 0.995726 0.996107 0.993405 0.993039 0.996129 0.996462 0.995528 0.992765 0.994548 0.993405 0.986509 0.990742 0.996462 0.99384 0.992765 0.992162 0.993405 0.993039 0.990742 0.990749 0.996809 0.995726 0.994548 0.993405 0.996183 0.996928 0.994821 0.991317 0.995726 0.996107 0.993405 0.993039 0.996928 0.994211 0.991317 0.992188 0.994548 0.993405 0.986509 0.990742 0.994821 0.991317 0.990412 0.991032 0.993405 0.993039 0.990742 0.990749 0.991317 0.992188 0.991032 0.988731 1.00142 0.999863 0.999832 0.997637 1.00032 0.998907 0.998953 0.996956 0.999863 0.997517 0.997637 0.995098 0.998907 0.996516 0.996956 0.995115 0.999832 0.997637 0.99795 0.99699 0.998953 0.996956 0.996809 0.995726 0.997637 0.995098 0.99699 0.99595 0.996956 0.995115 0.995726 0.996107 1.00032 0.998907 0.998953 0.996956 0.999705 0.999187 0.998576 0.997076 0.998907 0.996516 0.996956 0.995115 0.999187 0.996741 0.997076 0.994775 0.998953 0.996956 0.996809 0.995726 0.998576 0.997076 0.996183 0.996928 0.996956 0.995115 0.995726 0.996107 0.997076 0.994775 0.996928 0.994211 1.00175 0.999725 1.00334 0.999629 0.999529 0.997912 0.999376 0.996907 0.999725 0.997658 0.999629 0.996738 0.997912 0.997653 0.996907 0.995569 1.00334 0.999629 1.00529 0.999434 0.999376 0.996907 0.999399 0.99574 0.999629 0.996738 0.999434 0.995593 0.996907 0.995569 0.99574 0.994347 0.999529 0.997912 0.999376 0.996907 0.99642 0.995493 0.995406 0.993449 0.997912 0.997653 0.996907 0.995569 0.995493 0.996669 0.993449 0.994158 0.999376 0.996907 0.999399 0.99574 0.995406 0.993449 0.993441 0.994842 0.996907 0.995569 0.99574 0.994347 0.993449 0.994158 0.994842 0.988158 0.997658 0.997431 0.996738 0.99231 0.997653 0.99634 0.995569 0.99244 0.997431 0.997816 0.99231 0.993762 0.99634 0.994517 0.99244 0.992807 0.996738 0.99231 0.995593 0.991453 0.995569 0.99244 0.994347 0.99283 0.99231 0.993762 0.991453 0.993172 0.99244 0.992807 0.99283 0.986208 0.997653 0.99634 0.995569 0.99244 0.996669 0.996009 0.994158 0.992286 0.99634 0.994517 0.99244 0.992807 0.996009 0.996759 0.992286 0.993113 0.995569 0.99244 0.994347 0.99283 0.994158 0.992286 0.988158 0.991061 0.99244 0.992807 0.99283 0.986208 0.992286 0.993113 0.991061 0.994352 0.99642 0.995493 0.995406 0.993449 0.996499 0.995392 0.994668 0.99405 0.995493 0.996669 0.993449 0.994158 0.995392 0.996009 0.99405 0.992286 0.995406 0.993449 0.993441 0.994842 0.994668 0.99405 0.994276 0.99304 0.993449 0.994158 0.994842 0.988158 0.99405 0.992286 0.99304 0.991061 0.996499 0.995392 0.994668 0.99405 0.997146 0.99658 0.992835 0.993037 0.995392 0.996009 0.99405 0.992286 0.99658 0.996759 0.993037 0.993113 0.994668 0.99405 0.994276 0.99304 0.992835 0.993037 0.989673 0.989661 0.99405 0.992286 0.99304 0.991061 0.993037 0.993113 0.989661 0.994352 1.00175 0.999725 0.999529 0.997912 1.00027 0.998787 0.998932 0.998023 0.999725 0.997658 0.997912 0.997653 0.998787 0.997431 0.998023 0.99634 0.999529 0.997912 0.99642 0.995493 0.998932 0.998023 0.996499 0.995392 0.997912 0.997653 0.995493 0.996669 0.998023 0.99634 0.995392 0.996009 1.00027 0.998787 0.998932 0.998023 0.999705 0.999782 0.999276 0.99708 0.998787 0.997431 0.998023 0.99634 0.999782 0.997816 0.99708 0.994517 0.998932 0.998023 0.996499 0.995392 0.999276 0.99708 0.997146 0.99658 0.998023 0.99634 0.995392 0.996009 0.99708 0.994517 0.99658 0.996759 1.00654 1.0084 1.00904 1.01362 1.00714 1.00884 1.01517 1.01416 1.0084 1.00512 1.01362 1.01217 1.00884 1.00552 1.01416 1.01005 1.00904 1.01362 1.01274 1.01707 1.01517 1.01416 1.01213 1.01205 1.01362 1.01217 1.01707 1.01063 1.01416 1.01005 1.01205 1.01319 1.00714 1.00884 1.01517 1.01416 1.00604 1.00701 1.0145 1.01471 1.00884 1.00552 1.01416 1.01005 1.00701 1.00602 1.01471 1.00648 1.01517 1.01416 1.01213 1.01205 1.0145 1.01471 1.00774 1.01633 1.01416 1.01005 1.01205 1.01319 1.01471 1.00648 1.01633 1.01027 1.00512 1.00404 1.01217 1.00786 1.00552 1.00581 1.01005 1.00926 1.00404 1.00193 1.00786 1.00257 1.00581 1.00318 1.00926 1.00836 1.01217 1.00786 1.01063 1.01005 1.01005 1.00926 1.01319 1.0144 1.00786 1.00257 1.01005 1.00652 1.00926 1.00836 1.0144 1.00623 1.00552 1.00581 1.01005 1.00926 1.00602 1.00772 1.00648 1.0066 1.00581 1.00318 1.00926 1.00836 1.00772 1.00403 1.0066 1.00857 1.01005 1.00926 1.01319 1.0144 1.00648 1.0066 1.01027 1.00963 1.00926 1.00836 1.0144 1.00623 1.0066 1.00857 1.00963 1.00757 1.00604 1.00701 1.0145 1.01471 1.00536 1.00473 1.00783 1.01109 1.00701 1.00602 1.01471 1.00648 1.00473 1.00772 1.01109 1.0066 1.0145 1.01471 1.00774 1.01633 1.00783 1.01109 1.01206 1.01312 1.01471 1.00648 1.01633 1.01027 1.01109 1.0066 1.01312 1.00963 1.00536 1.00473 1.00783 1.01109 1.00151 1.00336 1.00362 1.00403 1.00473 1.00772 1.01109 1.0066 1.00336 1.00403 1.00403 1.00857 1.00783 1.01109 1.01206 1.01312 1.00362 1.00403 1.00623 1.00703 1.01109 1.0066 1.01312 1.00963 1.00403 1.00857 1.00703 1.00757 1.00654 1.0084 1.00714 1.00884 1.00121 1.00183 1.00333 1.00413 1.0084 1.00512 1.00884 1.00552 1.00183 1.00404 1.00413 1.00581 1.00714 1.00884 1.00604 1.00701 1.00333 1.00413 1.00536 1.00473 1.00884 1.00552 1.00701 1.00602 1.00413 1.00581 1.00473 1.00772 1.00121 1.00183 1.00333 1.00413 0.999705 0.999328 0.999889 1.00163 1.00183 1.00404 1.00413 1.00581 0.999328 1.00193 1.00163 1.00318 1.00333 1.00413 1.00536 1.00473 0.999889 1.00163 1.00151 1.00336 1.00413 1.00581 1.00473 1.00772 1.00163 1.00318 1.00336 1.00403 1.00842 1.00763 1.01372 1.01346 1.00782 1.00916 1.01007 1.00686 1.00763 1.00821 1.01346 1.00981 1.00916 1.01265 1.00686 1.01588 1.01372 1.01346 1.02252 1.01881 1.01007 1.00686 1.02345 1.02245 1.01346 1.00981 1.01881 1.00989 1.00686 1.01588 1.02245 1.01166 1.00782 1.00916 1.01007 1.00686 1.0071 1.00745 1.00969 1.0113 1.00916 1.01265 1.00686 1.01588 1.00745 1.00687 1.0113 1.01588 1.01007 1.00686 1.02345 1.02245 1.00969 1.0113 1.01601 1.01735 1.00686 1.01588 1.02245 1.01166 1.0113 1.01588 1.01735 1.01894 1.00821 1.00515 1.00981 1.00832 1.01265 1.00628 1.01588 1.00556 1.00515 1.0016 1.00832 1.00388 1.00628 1.00291 1.00556 1.00794 1.00981 1.00832 1.00989 1.01683 1.01588 1.00556 1.01166 1.01394 1.00832 1.00388 1.01683 1.00401 1.00556 1.00794 1.01394 1.0071 1.01265 1.00628 1.01588 1.00556 1.00687 1.00606 1.01588 1.00999 1.00628 1.00291 1.00556 1.00794 1.00606 1.00387 1.00999 1.00729 1.01588 1.00556 1.01166 1.01394 1.01588 1.00999 1.01894 1.01807 1.00556 1.00794 1.01394 1.0071 1.00999 1.00729 1.01807 1.01532 1.0071 1.00745 1.00969 1.0113 1.00463 1.00543 1.00957 1.00705 1.00745 1.00687 1.0113 1.01588 1.00543 1.00606 1.00705 1.00999 1.00969 1.0113 1.01601 1.01735 1.00957 1.00705 1.00244 1.01806 1.0113 1.01588 1.01735 1.01894 1.00705 1.00999 1.01806 1.01807 1.00463 1.00543 1.00957 1.00705 1.00125 1.00219 1.00328 1.00585 1.00543 1.00606 1.00705 1.00999 1.00219 1.00387 1.00585 1.00729 1.00957 1.00705 1.00244 1.01806 1.00328 1.00585 1.00491 1.0042 1.00705 1.00999 1.01806 1.01807 1.00585 1.00729 1.0042 1.01532 1.00842 1.00763 1.00782 1.00916 1.00079 1.00228 1.00224 1.00301 1.00763 1.00821 1.00916 1.01265 1.00228 1.00515 1.00301 1.00628 1.00782 1.00916 1.0071 1.00745 1.00224 1.00301 1.00463 1.00543 1.00916 1.01265 1.00745 1.00687 1.00301 1.00628 1.00543 1.00606 1.00079 1.00228 1.00224 1.00301 0.999705 0.999715 1.00026 1.00145 1.00228 1.00515 1.00301 1.00628 0.999715 1.0016 1.00145 1.00291 1.00224 1.00301 1.00463 1.00543 1.00026 1.00145 1.00125 1.00219 1.00301 1.00628 1.00543 1.00606 1.00145 1.00291 1.00219 1.00387 1.00183 0.999808 1.00266 0.999552 0.999536 0.997476 0.999046 0.995953 0.999808 0.998846 0.999552 0.99651 0.997476 0.996946 0.995953 0.995886 1.00266 0.999552 1.0055 0.999724 0.999046 0.995953 0.999311 0.997898 0.999552 0.99651 0.999724 0.995511 0.995953 0.995886 0.997898 0.997874 0.999536 0.997476 0.999046 0.995953 0.997741 0.996693 0.996404 0.993604 0.997476 0.996946 0.995953 0.995886 0.996693 0.995725 0.993604 0.992239 0.999046 0.995953 0.999311 0.997898 0.996404 0.993604 0.993774 0.990543 0.995953 0.995886 0.997898 0.997874 0.993604 0.992239 0.990543 0.989277 0.998846 0.995992 0.99651 0.993897 0.996946 0.996454 0.995886 0.993788 0.995992 0.996075 0.993897 0.990575 0.996454 0.996806 0.993788 0.993008 0.99651 0.993897 0.995511 0.991132 0.995886 0.993788 0.997874 0.996359 0.993897 0.990575 0.991132 0.989865 0.993788 0.993008 0.996359 0.991685 0.996946 0.996454 0.995886 0.993788 0.995725 0.995027 0.992239 0.991277 0.996454 0.996806 0.993788 0.993008 0.995027 0.996438 0.991277 0.99042 0.995886 0.993788 0.997874 0.996359 0.992239 0.991277 0.989277 0.985947 0.993788 0.993008 0.996359 0.991685 0.991277 0.99042 0.985947 0.993134 0.997741 0.996693 0.996404 0.993604 0.995818 0.994826 0.993842 0.99137 0.996693 0.995725 0.993604 0.992239 0.994826 0.995027 0.99137 0.991277 0.996404 0.993604 0.993774 0.990543 0.993842 0.99137 0.98935 0.989227 0.993604 0.992239 0.990543 0.989277 0.99137 0.991277 0.989227 0.985947 0.995818 0.994826 0.993842 0.99137 0.995594 0.995291 0.993537 0.993101 0.994826 0.995027 0.99137 0.991277 0.995291 0.996438 0.993101 0.99042 0.993842 0.99137 0.98935 0.989227 0.993537 0.993101 0.99145 0.987269 0.99137 0.991277 0.989227 0.985947 0.993101 0.99042 0.987269 0.993134 1.00183 0.999808 0.999536 0.997476 0.999873 0.999022 0.998582 0.997274 0.999808 0.998846 0.997476 0.996946 0.999022 0.995992 0.997274 0.996454 0.999536 0.997476 0.997741 0.996693 0.998582 0.997274 0.995818 0.994826 0.997476 0.996946 0.996693 0.995725 0.997274 0.996454 0.994826 0.995027 0.999873 0.999022 0.998582 0.997274 0.999705 0.998894 0.999203 0.997923 0.999022 0.995992 0.997274 0.996454 0.998894 0.996075 0.997923 0.996806 0.998582 0.997274 0.995818 0.994826 0.999203 0.997923 0.995594 0.995291 0.997274 0.996454 0.994826 0.995027 0.997923 0.996806 0.995291 0.996438 0.997271 0.997422 0.993944 0.994562 0.996148 0.995582 0.993185 0.994501 0.997422 0.998059 0.994562 0.99424 0.995582 0.996676 0.994501 0.995087 0.993944 0.994562 0.987387 0.994879 0.993185 0.994501 0.989577 0.991664 0.994562 0.99424 0.994879 0.995502 0.994501 0.995087 0.991664 0.996841 0.996148 0.995582 0.993185 0.994501 0.99691 0.995433 0.992139 0.995121 0.995582 0.996676 0.994501 0.995087 0.995433 0.996406 0.995121 0.994329 0.993185 0.994501 0.989577 0.991664 0.992139 0.995121 0.98567 0.993841 0.994501 0.995087 0.991664 0.996841 0.995121 0.994329 0.993841 0.994424 0.998059 0.999771 0.99424 1.00063 0.996676 0.997638 0.995087 0.997823 0.999771 1.00144 1.00063 1.00368 0.997638 0.99934 0.997823 1.00006 0.99424 1.00063 0.995502 1.00035 0.995087 0.997823 0.996841 0.996187 1.00063 1.00368 1.00035 1.00567 0.997823 1.00006 0.996187 0.999631 0.996676 0.997638 0.995087 0.997823 0.996406 0.996316 0.994329 0.994392 0.997638 0.99934 0.997823 1.00006 0.996316 0.996478 0.994392 0.99635 0.995087 0.997823 0.996841 0.996187 0.994329 0.994392 0.994424 0.990517 0.997823 1.00006 0.996187 0.999631 0.994392 0.99635 0.990517 0.994066 0.99691 0.995433 0.992139 0.995121 0.996437 0.995915 0.991463 0.992003 0.995433 0.996406 0.995121 0.994329 0.995915 0.996316 0.992003 0.994392 0.992139 0.995121 0.98567 0.993841 0.991463 0.992003 0.990935 0.990525 0.995121 0.994329 0.993841 0.994424 0.992003 0.994392 0.990525 0.990517 0.996437 0.995915 0.991463 0.992003 0.996534 0.996642 0.994727 0.993027 0.995915 0.996316 0.992003 0.994392 0.996642 0.996478 0.993027 0.99635 0.991463 0.992003 0.990935 0.990525 0.994727 0.993027 0.989668 0.989493 0.992003 0.994392 0.990525 0.990517 0.993027 0.99635 0.989493 0.994066 0.997271 0.997422 0.996148 0.995582 0.999384 0.99929 0.99863 0.997643 0.997422 0.998059 0.995582 0.996676 0.99929 0.999771 0.997643 0.997638 0.996148 0.995582 0.99691 0.995433 0.99863 0.997643 0.996437 0.995915 0.995582 0.996676 0.995433 0.996406 0.997643 0.997638 0.995915 0.996316 0.999384 0.99929 0.99863 0.997643 0.999705 1.00061 0.999755 0.999105 0.99929 0.999771 0.997643 0.997638 1.00061 1.00144 0.999105 0.99934 0.99863 0.997643 0.996437 0.995915 0.999755 0.999105 0.996534 0.996642 0.997643 0.997638 0.995915 0.996316 0.999105 0.99934 0.996642 0.996478 0.997271 0.996148 0.993944 0.993185 0.996122 0.995495 0.994539 0.99007 0.996148 0.99691 0.993185 0.992139 0.995495 0.996596 0.99007 0.99326 0.993944 0.993185 0.987387 0.989577 0.994539 0.99007 0.995241 0.994457 0.993185 0.992139 0.989577 0.98567 0.99007 0.99326 0.994457 0.990585 0.996122 0.995495 0.994539 0.99007 0.997445 0.996569 0.996397 0.994885 0.995495 0.996596 0.99007 0.99326 0.996569 0.996922 0.994885 0.991697 0.994539 0.99007 0.995241 0.994457 0.996397 0.994885 0.993435 0.99271 0.99007 0.99326 0.994457 0.990585 0.994885 0.991697 0.99271 0.991279 0.99691 0.996437 0.992139 0.991463 0.996596 0.994646 0.99326 0.996979 0.996437 0.996534 0.991463 0.994727 0.994646 0.997319 0.996979 0.994406 0.992139 0.991463 0.98567 0.990935 0.99326 0.996979 0.990585 0.993331 0.991463 0.994727 0.990935 0.989668 0.996979 0.994406 0.993331 0.992147 0.996596 0.994646 0.99326 0.996979 0.996922 0.99685 0.991697 0.993239 0.994646 0.997319 0.996979 0.994406 0.99685 0.996318 0.993239 0.996198 0.99326 0.996979 0.990585 0.993331 0.991697 0.993239 0.991279 0.991797 0.996979 0.994406 0.993331 0.992147 0.993239 0.996198 0.991797 0.99005 0.997445 0.996569 0.996397 0.994885 0.999672 0.998009 0.999947 0.996589 0.996569 0.996922 0.994885 0.991697 0.998009 0.99685 0.996589 0.993239 0.996397 0.994885 0.993435 0.99271 0.999947 0.996589 1.0006 0.994575 0.994885 0.991697 0.99271 0.991279 0.996589 0.993239 0.994575 0.991797 0.999672 0.998009 0.999947 0.996589 1.00151 0.998969 1.00362 0.998929 0.998009 0.99685 0.996589 0.993239 0.998969 0.996318 0.998929 0.996198 0.999947 0.996589 1.0006 0.994575 1.00362 0.998929 1.00623 0.999094 0.996589 0.993239 0.994575 0.991797 0.998929 0.996198 0.999094 0.99005 0.997271 0.996148 0.996122 0.995495 0.999384 0.99863 0.998942 0.997842 0.996148 0.99691 0.995495 0.996596 0.99863 0.996437 0.997842 0.994646 0.996122 0.995495 0.997445 0.996569 0.998942 0.997842 0.999672 0.998009 0.995495 0.996596 0.996569 0.996922 0.997842 0.994646 0.998009 0.99685 0.999384 0.99863 0.998942 0.997842 0.999705 0.999755 0.999889 0.998155 0.99863 0.996437 0.997842 0.994646 0.999755 0.996534 0.998155 0.997319 0.998942 0.997842 0.999672 0.998009 0.999889 0.998155 1.00151 0.998969 0.997842 0.994646 0.998009 0.99685 0.998155 0.997319 0.998969 0.996318 1.00175 0.999529 1.00334 0.999376 1.00013 0.998208 1.00026 0.996796 0.999529 0.99642 0.999376 0.995406 0.998208 0.99683 0.996796 0.99514 1.00334 0.999376 1.00529 0.999399 1.00026 0.996796 1.00061 0.997533 0.999376 0.995406 0.999399 0.993441 0.996796 0.99514 0.997533 0.998132 1.00013 0.998208 1.00026 0.996796 0.99815 0.997499 0.995204 0.995477 0.998208 0.99683 0.996796 0.99514 0.997499 0.994735 0.995477 0.993022 1.00026 0.996796 1.00061 0.997533 0.995204 0.995477 0.991126 0.994518 0.996796 0.99514 0.997533 0.998132 0.995477 0.993022 0.994518 0.992803 0.99642 0.996499 0.995406 0.994668 0.99683 0.997536 0.99514 0.992826 0.996499 0.997146 0.994668 0.992835 0.997536 0.996401 0.992826 0.994147 0.995406 0.994668 0.993441 0.994276 0.99514 0.992826 0.998132 0.987214 0.994668 0.992835 0.994276 0.989673 0.992826 0.994147 0.987214 0.992665 0.99683 0.997536 0.99514 0.992826 0.994735 0.995459 0.993022 0.990635 0.997536 0.996401 0.992826 0.994147 0.995459 0.996273 0.990635 0.993623 0.99514 0.992826 0.998132 0.987214 0.993022 0.990635 0.992803 0.993054 0.992826 0.994147 0.987214 0.992665 0.990635 0.993623 0.993054 0.985735 0.99815 0.997499 0.995204 0.995477 0.996948 0.994845 0.994094 0.991963 0.997499 0.994735 0.995477 0.993022 0.994845 0.995459 0.991963 0.990635 0.995204 0.995477 0.991126 0.994518 0.994094 0.991963 0.996155 0.991625 0.995477 0.993022 0.994518 0.992803 0.991963 0.990635 0.991625 0.993054 0.996948 0.994845 0.994094 0.991963 0.996075 0.995599 0.990575 0.994026 0.994845 0.995459 0.991963 0.990635 0.995599 0.996273 0.994026 0.993623 0.994094 0.991963 0.996155 0.991625 0.990575 0.994026 0.989865 0.99031 0.991963 0.990635 0.991625 0.993054 0.994026 0.993623 0.99031 0.985735 1.00175 0.999529 1.00013 0.998208 1.00027 0.998932 0.99946 0.997961 0.999529 0.99642 0.998208 0.99683 0.998932 0.996499 0.997961 0.997536 1.00013 0.998208 0.99815 0.997499 0.99946 0.997961 0.996948 0.994845 0.998208 0.99683 0.997499 0.994735 0.997961 0.997536 0.994845 0.995459 1.00027 0.998932 0.99946 0.997961 0.999705 0.999276 0.998894 0.998155 0.998932 0.996499 0.997961 0.997536 0.999276 0.997146 0.998155 0.996401 0.99946 0.997961 0.996948 0.994845 0.998894 0.998155 0.996075 0.995599 0.997961 0.997536 0.994845 0.995459 0.998155 0.996401 0.995599 0.996273 1.00144 0.999844 1.00368 1.00064 0.99934 0.998123 1.00006 0.99798 0.999844 0.99781 1.00064 0.99691 0.998123 0.995669 0.99798 0.995338 1.00368 1.00064 1.00567 1.00034 1.00006 0.99798 0.999631 0.997014 1.00064 0.99691 1.00034 0.995343 0.99798 0.995338 0.997014 0.992483 0.99934 0.998123 1.00006 0.99798 0.996478 0.995972 0.99635 0.995091 0.998123 0.995669 0.99798 0.995338 0.995972 0.99552 0.995091 0.995074 1.00006 0.99798 0.999631 0.997014 0.99635 0.995091 0.994066 0.991874 0.99798 0.995338 0.997014 0.992483 0.995091 0.995074 0.991874 0.994762 0.997816 0.997802 0.993762 0.992111 0.996843 0.99597 0.99556 0.994492 0.997802 0.993815 0.992111 0.992368 0.99597 0.997141 0.994492 0.994719 0.993762 0.992111 0.993172 0.989755 0.99556 0.994492 0.992308 0.996395 0.992111 0.992368 0.989755 0.987067 0.994492 0.994719 0.996395 0.995287 0.996843 0.99597 0.99556 0.994492 0.99781 0.995669 0.99691 0.995338 0.99597 0.997141 0.994492 0.994719 0.995669 0.99552 0.995338 0.995074 0.99556 0.994492 0.992308 0.996395 0.99691 0.995338 0.995343 0.992483 0.994492 0.994719 0.996395 0.995287 0.995338 0.995074 0.992483 0.994762 0.996534 0.996642 0.994727 0.993027 0.996701 0.995958 0.991524 0.994737 0.996642 0.996478 0.993027 0.99635 0.995958 0.995972 0.994737 0.995091 0.994727 0.993027 0.989668 0.989493 0.991524 0.994737 0.990915 0.990704 0.993027 0.99635 0.989493 0.994066 0.994737 0.995091 0.990704 0.991874 0.996701 0.995958 0.991524 0.994737 0.993815 0.997141 0.992368 0.994719 0.995958 0.995972 0.994737 0.995091 0.997141 0.99552 0.994719 0.995074 0.991524 0.994737 0.990915 0.990704 0.992368 0.994719 0.987067 0.995287 0.994737 0.995091 0.990704 0.991874 0.994719 0.995074 0.995287 0.994762 0.999705 1.00061 0.999755 0.999105 0.999782 0.999403 0.998596 0.998566 1.00061 1.00144 0.999105 0.99934 0.999403 0.999844 0.998566 0.998123 0.999755 0.999105 0.996534 0.996642 0.998596 0.998566 0.996701 0.995958 0.999105 0.99934 0.996642 0.996478 0.998566 0.998123 0.995958 0.995972 0.999782 0.999403 0.998596 0.998566 0.997816 0.996843 0.997802 0.99597 0.999403 0.999844 0.998566 0.998123 0.996843 0.99781 0.99597 0.995669 0.998596 0.998566 0.996701 0.995958 0.997802 0.99597 0.993815 0.997141 0.998566 0.998123 0.995958 0.995972 0.99597 0.995669 0.997141 0.99552 0.996846 0.996458 0.997237 0.993669 0.999945 0.998737 1