# vtk DataFile Version 3.0
#This file was generated by the deal.II library on 2025/4/17 at 14:11:48
ASCII
DATASET UNSTRUCTURED_GRID

POINTS 8192 double
-0.353262 4.37115e-05 -0.354013
-0.461684 -0.00166433 -0.298292
-0.528533 -0.0100583 -0.529285
-0.639065 -0.00989043 -0.423885
-0.414076 -0.117297 -0.299999
-0.507593 -0.105761 -0.258326
-0.591029 -0.165813 -0.432024
-0.67687 -0.144499 -0.356172
-0.461684 -0.00166433 -0.298292
-0.568686 3.68979e-05 -0.236044
-0.639065 -0.00989043 -0.423885
-0.743513 -0.00566451 -0.311799
-0.507593 -0.105761 -0.258326
-0.600143 -0.0913593 -0.212395
-0.67687 -0.144499 -0.356172
-0.759028 -0.120648 -0.276821
-0.528533 -0.0100583 -0.529285
-0.639065 -0.00989043 -0.423885
-0.706828 3.57112e-05 -0.70755
-0.821306 -0.00284026 -0.548478
-0.591029 -0.165813 -0.432024
-0.67687 -0.144499 -0.356172
-0.773582 -0.202642 -0.56371
-0.851445 -0.17403 -0.451696
-0.639065 -0.00989043 -0.423885
-0.743513 -0.00566451 -0.311799
-0.821306 -0.00284026 -0.548478
-0.923526 3.24761e-05 -0.382994
-0.67687 -0.144499 -0.356172
-0.759028 -0.120648 -0.276821
-0.851445 -0.17403 -0.451696
-0.922488 -0.14282 -0.337372
-0.414076 -0.117297 -0.299999
-0.507593 -0.105761 -0.258326
-0.591029 -0.165813 -0.432024
-0.67687 -0.144499 -0.356172
-0.471081 -0.23559 -0.236051
-0.55039 -0.21111 -0.211571
-0.644872 -0.320004 -0.320465
-0.708486 -0.279027 -0.279488
-0.507593 -0.105761 -0.258326
-0.600143 -0.0913593 -0.212395
-0.67687 -0.144499 -0.356172
-0.759028 -0.120648 -0.276821
-0.55039 -0.21111 -0.211571
-0.629045 -0.184195 -0.184567
-0.708486 -0.279027 -0.279488
-0.77002 -0.236531 -0.236904
-0.591029 -0.165813 -0.432024
-0.67687 -0.144499 -0.356172
-0.773582 -0.202642 -0.56371
-0.851445 -0.17403 -0.451696
-0.644872 -0.320004 -0.320465
-0.708486 -0.279027 -0.279488
-0.824715 -0.399457 -0.399886
-0.871295 -0.342708 -0.343138
-0.67687 -0.144499 -0.356172
-0.759028 -0.120648 -0.276821
-0.851445 -0.17403 -0.451696
-0.922488 -0.14282 -0.337372
-0.708486 -0.279027 -0.279488
-0.77002 -0.236531 -0.236904
-0.871295 -0.342708 -0.343138
-0.914527 -0.285344 -0.285687
-0.568686 3.68979e-05 -0.236044
-0.536491 -0.00240511 -0.116074
-0.743513 -0.00566451 -0.311799
-0.748973 -0.0104175 -0.159187
-0.600143 -0.0913593 -0.212395
-0.570012 -0.105858 -0.10612
-0.759028 -0.120648 -0.276821
-0.757204 -0.142346 -0.142608
-0.536491 -0.00240511 -0.116074
-0.499595 4.42816e-05 -9.36258e-05
-0.748973 -0.0104175 -0.159187
-0.74528 -0.00989701 -0.0100349
-0.570012 -0.105858 -0.10612
-0.536477 -0.115807 -0.0025368
-0.757204 -0.142346 -0.142608
-0.748958 -0.158919 -0.0105492
-0.743513 -0.00566451 -0.311799
-0.748973 -0.0104175 -0.159187
-0.923526 3.24761e-05 -0.382994
-0.968985 -0.00329241 -0.190833
-0.759028 -0.120648 -0.276821
-0.757204 -0.142346 -0.142608
-0.922488 -0.14282 -0.337372
-0.950823 -0.169874 -0.170105
-0.748973 -0.0104175 -0.159187
-0.74528 -0.00989701 -0.0100349
-0.968985 -0.00329241 -0.190833
-0.999546 4.63045e-05 -8.06962e-05
-0.757204 -0.142346 -0.142608
-0.748958 -0.158919 -0.0105492
-0.950823 -0.169874 -0.170105
-0.968947 -0.190594 -0.00341048
-0.600143 -0.0913593 -0.212395
-0.570012 -0.105858 -0.10612
-0.759028 -0.120648 -0.276821
-0.757204 -0.142346 -0.142608
-0.629045 -0.184195 -0.184567
-0.600097 -0.211955 -0.0915836
-0.77002 -0.236531 -0.236904
-0.758982 -0.276381 -0.120872
-0.570012 -0.105858 -0.10612
-0.536477 -0.115807 -0.0025368
-0.757204 -0.142346 -0.142608
-0.748958 -0.158919 -0.0105492
-0.600097 -0.211955 -0.0915836
-0.568632 -0.235587 -7.82308e-05
-0.758982 -0.276381 -0.120872
-0.743459 -0.311342 -0.00577963
-0.759028 -0.120648 -0.276821
-0.757204 -0.142346 -0.142608
-0.922488 -0.14282 -0.337372
-0.950823 -0.169874 -0.170105
-0.77002 -0.236531 -0.236904
-0.758982 -0.276381 -0.120872
-0.914527 -0.285344 -0.285687
-0.922423 -0.336957 -0.143015
-0.757204 -0.142346 -0.142608
-0.748958 -0.158919 -0.0105492
-0.950823 -0.169874 -0.170105
-0.968947 -0.190594 -0.00341048
-0.758982 -0.276381 -0.120872
-0.743459 -0.311342 -0.00577963
-0.922423 -0.336957 -0.143015
-0.923437 -0.382558 -6.7443e-05
-0.471081 -0.23559 -0.236051
-0.55039 -0.21111 -0.211571
-0.644872 -0.320004 -0.320465
-0.708486 -0.279027 -0.279488
-0.414029 -0.299362 -0.117566
-0.507545 -0.25769 -0.106031
-0.590982 -0.431387 -0.166082
-0.676822 -0.355536 -0.144768
-0.55039 -0.21111 -0.211571
-0.629045 -0.184195 -0.184567
-0.708486 -0.279027 -0.279488
-0.77002 -0.236531 -0.236904
-0.507545 -0.25769 -0.106031
-0.600097 -0.211955 -0.0915836
-0.676822 -0.355536 -0.144768
-0.758982 -0.276381 -0.120872
-0.644872 -0.320004 -0.320465
-0.708486 -0.279027 -0.279488
-0.824715 -0.399457 -0.399886
-0.871295 -0.342708 -0.343138
-0.590982 -0.431387 -0.166082
-0.676822 -0.355536 -0.144768
-0.773499 -0.563079 -0.202875
-0.851362 -0.451065 -0.174262
-0.708486 -0.279027 -0.279488
-0.77002 -0.236531 -0.236904
-0.871295 -0.342708 -0.343138
-0.914527 -0.285344 -0.285687
-0.676822 -0.355536 -0.144768
-0.758982 -0.276381 -0.120872
-0.851362 -0.451065 -0.174262
-0.922423 -0.336957 -0.143015
-0.414029 -0.299362 -0.117566
-0.507545 -0.25769 -0.106031
-0.590982 -0.431387 -0.166082
-0.676822 -0.355536 -0.144768
-0.353223 -0.353326 -8.949e-05
-0.461645 -0.297604 -0.00179754
-0.528495 -0.528597 -0.0101915
-0.639027 -0.423198 -0.0100236
-0.507545 -0.25769 -0.106031
-0.600097 -0.211955 -0.0915836
-0.676822 -0.355536 -0.144768
-0.758982 -0.276381 -0.120872
-0.461645 -0.297604 -0.00179754
-0.568632 -0.235587 -7.82308e-05
-0.639027 -0.423198 -0.0100236
-0.743459 -0.311342 -0.00577963
-0.590982 -0.431387 -0.166082
-0.676822 -0.355536 -0.144768
-0.773499 -0.563079 -0.202875
-0.851362 -0.451065 -0.174262
-0.528495 -0.528597 -0.0101915
-0.639027 -0.423198 -0.0100236
-0.706739 -0.70685 -7.83342e-05
-0.821217 -0.547778 -0.0029543
-0.676822 -0.355536 -0.144768
-0.758982 -0.276381 -0.120872
-0.851362 -0.451065 -0.174262
-0.922423 -0.336957 -0.143015
-0.639027 -0.423198 -0.0100236
-0.743459 -0.311342 -0.00577963
-0.821217 -0.547778 -0.0029543
-0.923437 -0.382558 -6.7443e-05
-0.353262 4.37115e-05 -0.354013
-0.461684 -0.00166433 -0.298292
-0.414076 -0.117297 -0.299999
-0.507593 -0.105761 -0.258326
-0.173877 -0.014446 -0.174478
-0.353438 -0.0141182 -0.152733
-0.294153 -0.15482 -0.155218
-0.431748 -0.134087 -0.134485
-0.461684 -0.00166433 -0.298292
-0.568686 3.68979e-05 -0.236044
-0.507593 -0.105761 -0.258326
-0.600143 -0.0913593 -0.212395
-0.353438 -0.0141182 -0.152733
-0.536491 -0.00240511 -0.116074
-0.431748 -0.134087 -0.134485
-0.570012 -0.105858 -0.10612
-0.414076 -0.117297 -0.299999
-0.507593 -0.105761 -0.258326
-0.471081 -0.23559 -0.236051
-0.55039 -0.21111 -0.211571
-0.294153 -0.15482 -0.155218
-0.431748 -0.134087 -0.134485
-0.414029 -0.299362 -0.117566
-0.507545 -0.25769 -0.106031
-0.507593 -0.105761 -0.258326
-0.600143 -0.0913593 -0.212395
-0.55039 -0.21111 -0.211571
-0.629045 -0.184195 -0.184567
-0.431748 -0.134087 -0.134485
-0.570012 -0.105858 -0.10612
-0.507545 -0.25769 -0.106031
-0.600097 -0.211955 -0.0915836
-0.173877 -0.014446 -0.174478
-0.353438 -0.0141182 -0.152733
-0.294153 -0.15482 -0.155218
-0.431748 -0.134087 -0.134485
0.000198633 6.62984e-05 -0.000142049
-0.243597 -0.0125612 -0.0127696
-0.173935 -0.174067 -0.014642
-0.353496 -0.152323 -0.0143141
-0.353438 -0.0141182 -0.152733
-0.536491 -0.00240511 -0.116074
-0.431748 -0.134087 -0.134485
-0.570012 -0.105858 -0.10612
-0.243597 -0.0125612 -0.0127696
-0.499595 4.42816e-05 -9.36258e-05
-0.353496 -0.152323 -0.0143141
-0.536477 -0.115807 -0.0025368
-0.294153 -0.15482 -0.155218
-0.431748 -0.134087 -0.134485
-0.414029 -0.299362 -0.117566
-0.507545 -0.25769 -0.106031
-0.173935 -0.174067 -0.014642
-0.353496 -0.152323 -0.0143141
-0.353223 -0.353326 -8.949e-05
-0.461645 -0.297604 -0.00179754
-0.431748 -0.134087 -0.134485
-0.570012 -0.105858 -0.10612
-0.507545 -0.25769 -0.106031
-0.600097 -0.211955 -0.0915836
-0.353496 -0.152323 -0.0143141
-0.536477 -0.115807 -0.0025368
-0.461645 -0.297604 -0.00179754
-0.568632 -0.235587 -7.82308e-05
0.353331 -1.77802e-05 0.353982
0.41096 0.117643 0.285747
0.537196 -0.0281956 0.537847
0.59654 0.137241 0.402785
0.459771 -0.00426891 0.291517
0.503359 0.102381 0.243448
0.641432 -0.0301337 0.418219
0.678036 0.118461 0.329601
0.41096 0.117643 0.285747
0.471142 0.235615 0.236016
0.59654 0.137241 0.402785
0.660784 0.312178 0.312551
0.503359 0.102381 0.243448
0.548316 0.208391 0.20879
0.678036 0.118461 0.329601
0.717351 0.269624 0.270008
0.537196 -0.0281956 0.537847
0.59654 0.137241 0.402785
0.706906 -1.16383e-05 0.707519
0.757604 0.193306 0.520103
0.641432 -0.0301337 0.418219
0.678036 0.118461 0.329601
0.80767 -0.0161591 0.544907
0.831381 0.16169 0.422151
0.59654 0.137241 0.402785
0.660784 0.312178 0.312551
0.757604 0.193306 0.520103
0.81626 0.408164 0.408479
0.678036 0.118461 0.329601
0.717351 0.269624 0.270008
0.831381 0.16169 0.422151
0.859669 0.346653 0.346986
0.459771 -0.00426891 0.291517
0.503359 0.102381 0.243448
0.641432 -0.0301337 0.418219
0.678036 0.118461 0.329601
0.568747 -1.75105e-05 0.236013
0.598209 0.0930777 0.206185
0.753618 -0.013835 0.304495
0.766338 0.108322 0.259167
0.503359 0.102381 0.243448
0.548316 0.208391 0.20879
0.678036 0.118461 0.329601
0.717351 0.269624 0.270008
0.598209 0.0930777 0.206185
0.628248 0.185082 0.185397
0.766338 0.108322 0.259167
0.780561 0.229461 0.229773
0.641432 -0.0301337 0.418219
0.678036 0.118461 0.329601
0.80767 -0.0161591 0.544907
0.831381 0.16169 0.422151
0.753618 -0.013835 0.304495
0.766338 0.108322 0.259167
0.923591 -1.50052e-05 0.382959
0.917235 0.143655 0.323043
0.678036 0.118461 0.329601
0.717351 0.269624 0.270008
0.831381 0.16169 0.422151
0.859669 0.346653 0.346986
0.766338 0.108322 0.259167
0.780561 0.229461 0.229773
0.917235 0.143655 0.323043
0.913649 0.286861 0.287132
0.471142 0.235615 0.236016
0.410896 0.285169 0.117852
0.660784 0.312178 0.312551
0.596477 0.402225 0.137437
0.548316 0.208391 0.20879
0.503295 0.242872 0.102588
0.717351 0.269624 0.270008
0.677973 0.329034 0.118661
0.410896 0.285169 0.117852
0.353267 0.353351 4.54313e-05
0.596477 0.402225 0.137437
[...]
POINT_DATA 8192
SCALARS D_0 double 1
LOOKUP_TABLE default
7.31482e-05 6.41985e-05 8.47871e-05 6.97458e-05 6.44305e-05 5.98133e-05 7.15219e-05 6.43512e-05 6.41985e-05 5.82129e-05 6.97458e-05 6.19976e-05 5.98133e-05 5.69504e-05 6.43512e-05 6.0602e-05 8.47871e-05 6.97458e-05 7.07659e-05 5.78666e-05 7.15219e-05 6.43512e-05 5.89014e-05 5.46767e-05 6.97458e-05 6.19976e-05 5.78666e-05 5.45784e-05 6.43512e-05 6.0602e-05 5.46767e-05 5.54191e-05 6.44305e-05 5.98133e-05 7.15219e-05 6.43512e-05 5.73386e-05 5.626e-05 6.14294e-05 6.03201e-05 5.98133e-05 5.69504e-05 6.43512e-05 6.0602e-05 5.626e-05 5.5928e-05 6.03201e-05 5.94029e-05 7.15219e-05 6.43512e-05 5.89014e-05 5.46767e-05 6.14294e-05 6.03201e-05 5.41774e-05 5.45087e-05 6.43512e-05 6.0602e-05 5.46767e-05 5.54191e-05 6.03201e-05 5.94029e-05 5.45087e-05 5.59374e-05 5.82129e-05 5.07609e-05 6.19976e-05 5.84964e-05 5.69504e-05 5.13552e-05 6.0602e-05 5.83857e-05 5.07609e-05 4.5368e-05 5.84964e-05 5.60481e-05 5.13552e-05 4.7291e-05 5.83857e-05 5.69192e-05 6.19976e-05 5.84964e-05 5.45784e-05 5.88136e-05 6.0602e-05 5.83857e-05 5.54191e-05 5.87379e-05 5.84964e-05 5.60481e-05 5.88136e-05 6.14798e-05 5.83857e-05 5.69192e-05 5.87379e-05 6.05397e-05 5.69504e-05 5.13552e-05 6.0602e-05 5.83857e-05 5.5928e-05 5.2182e-05 5.94029e-05 5.85867e-05 5.13552e-05 4.7291e-05 5.83857e-05 5.69192e-05 5.2182e-05 4.95444e-05 5.85867e-05 5.80872e-05 6.0602e-05 5.83857e-05 5.54191e-05 5.87379e-05 5.94029e-05 5.85867e-05 5.59374e-05 5.88544e-05 5.83857e-05 5.69192e-05 5.87379e-05 6.05397e-05 5.85867e-05 5.80872e-05 5.88544e-05 5.96715e-05 5.73386e-05 5.626e-05 6.14294e-05 6.03201e-05 4.93774e-05 5.03968e-05 5.74973e-05 5.78924e-05 5.626e-05 5.5928e-05 6.03201e-05 5.94029e-05 5.03968e-05 5.2182e-05 5.78924e-05 5.85867e-05 6.14294e-05 6.03201e-05 5.41774e-05 5.45087e-05 5.74973e-05 5.78924e-05 5.67876e-05 5.75305e-05 6.03201e-05 5.94029e-05 5.45087e-05 5.59374e-05 5.78924e-05 5.85867e-05 5.75305e-05 5.88544e-05 4.93774e-05 5.03968e-05 5.74973e-05 5.78924e-05 4.5103e-05 4.70997e-05 5.56866e-05 5.62157e-05 5.03968e-05 5.2182e-05 5.78924e-05 5.85867e-05 4.70997e-05 4.95444e-05 5.62157e-05 5.80872e-05 5.74973e-05 5.78924e-05 5.67876e-05 5.75305e-05 5.56866e-05 5.62157e-05 6.13938e-05 5.97067e-05 5.78924e-05 5.85867e-05 5.75305e-05 5.88544e-05 5.62157e-05 5.80872e-05 5.97067e-05 5.96715e-05 7.31482e-05 6.41985e-05 6.44305e-05 5.98133e-05 4.22369e-05 4.54721e-05 4.45796e-05 4.77658e-05 6.41985e-05 5.82129e-05 5.98133e-05 5.69504e-05 4.54721e-05 5.07609e-05 4.77658e-05 5.13552e-05 6.44305e-05 5.98133e-05 5.73386e-05 5.626e-05 4.45796e-05 4.77658e-05 4.93774e-05 5.03968e-05 5.98133e-05 5.69504e-05 5.626e-05 5.5928e-05 4.77658e-05 5.13552e-05 5.03968e-05 5.2182e-05 4.22369e-05 4.54721e-05 4.45796e-05 4.77658e-05 3.8558e-06 2.5663e-05 2.59404e-05 3.68118e-05 4.54721e-05 5.07609e-05 4.77658e-05 5.13552e-05 2.5663e-05 4.5368e-05 3.68118e-05 4.7291e-05 4.45796e-05 4.77658e-05 4.93774e-05 5.03968e-05 2.59404e-05 3.68118e-05 4.5103e-05 4.70997e-05 4.77658e-05 5.13552e-05 5.03968e-05 5.2182e-05 3.68118e-05 4.7291e-05 4.70997e-05 4.95444e-05 6.74683e-05 5.63421e-05 7.81912e-05 6.20287e-05 5.72633e-05 5.17393e-05 6.18268e-05 5.53337e-05 5.63421e-05 4.98233e-05 6.20287e-05 5.13514e-05 5.17393e-05 4.85202e-05 5.53337e-05 5.10148e-05 7.81912e-05 6.20287e-05 6.62511e-05 4.98058e-05 6.18268e-05 5.53337e-05 5.09526e-05 4.56506e-05 6.20287e-05 5.13514e-05 4.98058e-05 4.25342e-05 5.53337e-05 5.10148e-05 4.56506e-05 4.47902e-05 5.72633e-05 5.17393e-05 6.18268e-05 5.53337e-05 5.13216e-05 4.95197e-05 5.34442e-05 5.18991e-05 5.17393e-05 4.85202e-05 5.53337e-05 5.10148e-05 4.95197e-05 4.85444e-05 5.18991e-05 5.09222e-05 6.18268e-05 5.53337e-05 5.09526e-05 4.56506e-05 5.34442e-05 5.18991e-05 4.5035e-05 4.6546e-05 5.53337e-05 5.10148e-05 4.56506e-05 4.47902e-05 5.18991e-05 5.09222e-05 4.6546e-05 4.67199e-05 4.98233e-05 4.18452e-05 5.13514e-05 4.83267e-05 4.85202e-05 4.31986e-05 5.10148e-05 4.99816e-05 4.18452e-05 3.95529e-05 4.83267e-05 4.99072e-05 4.31986e-05 4.12795e-05 4.99816e-05 5.1229e-05 5.13514e-05 4.83267e-05 4.25342e-05 4.78076e-05 5.10148e-05 4.99816e-05 4.47902e-05 5.04165e-05 4.83267e-05 4.99072e-05 4.78076e-05 5.39555e-05 4.99816e-05 5.1229e-05 5.04165e-05 5.41681e-05 4.85202e-05 4.31986e-05 5.10148e-05 4.99816e-05 4.85444e-05 4.57755e-05 5.09222e-05 5.19735e-05 4.31986e-05 4.12795e-05 4.99816e-05 5.1229e-05 4.57755e-05 4.44336e-05 5.19735e-05 5.36556e-05 5.10148e-05 4.99816e-05 4.47902e-05 5.04165e-05 5.09222e-05 5.19735e-05 4.67199e-05 5.19973e-05 4.99816e-05 5.1229e-05 5.04165e-05 5.41681e-05 5.19735e-05 5.36556e-05 5.19973e-05 5.58948e-05 5.13216e-05 4.95197e-05 5.34442e-05 5.18991e-05 4.45773e-05 4.46734e-05 5.12231e-05 5.09739e-05 4.95197e-05 4.85444e-05 5.18991e-05 5.09222e-05 4.46734e-05 4.57755e-05 5.09739e-05 5.19735e-05 5.34442e-05 5.18991e-05 4.5035e-05 4.6546e-05 5.12231e-05 5.09739e-05 5.09903e-05 5.17164e-05 5.18991e-05 5.09222e-05 4.6546e-05 4.67199e-05 5.09739e-05 5.19735e-05 5.17164e-05 5.19973e-05 4.45773e-05 4.46734e-05 5.12231e-05 5.09739e-05 4.01328e-05 4.19864e-05 5.12356e-05 5.2352e-05 4.46734e-05 4.57755e-05 5.09739e-05 5.19735e-05 4.19864e-05 4.44336e-05 5.2352e-05 5.36556e-05 5.12231e-05 5.09739e-05 5.09903e-05 5.17164e-05 5.12356e-05 5.2352e-05 5.54306e-05 5.58114e-05 5.09739e-05 5.19735e-05 5.17164e-05 5.19973e-05 5.2352e-05 5.36556e-05 5.58114e-05 5.58948e-05 6.74683e-05 5.63421e-05 5.72633e-05 5.17393e-05 3.85616e-05 3.50399e-05 3.83743e-05 3.92089e-05 5.63421e-05 4.98233e-05 5.17393e-05 4.85202e-05 3.50399e-05 4.18452e-05 3.92089e-05 4.31986e-05 5.72633e-05 5.17393e-05 5.13216e-05 4.95197e-05 3.83743e-05 3.92089e-05 4.45773e-05 4.46734e-05 5.17393e-05 4.85202e-05 4.95197e-05 4.85444e-05 3.92089e-05 4.31986e-05 4.46734e-05 4.57755e-05 3.85616e-05 3.50399e-05 3.83743e-05 3.92089e-05 3.8558e-06 2.16621e-05 2.10609e-05 3.15841e-05 3.50399e-05 4.18452e-05 3.92089e-05 4.31986e-05 2.16621e-05 3.95529e-05 3.15841e-05 4.12795e-05 3.83743e-05 3.92089e-05 4.45773e-05 4.46734e-05 2.10609e-05 3.15841e-05 4.01328e-05 4.19864e-05 3.92089e-05 4.31986e-05 4.46734e-05 4.57755e-05 3.15841e-05 4.12795e-05 4.19864e-05 4.44336e-05 9.07059e-05 9.38714e-05 0.000112246 0.000109915 9.41656e-05 9.67818e-05 0.000109453 0.000107883 9.38714e-05 9.51442e-05 0.000109915 0.000102955 9.67818e-05 9.73095e-05 0.000107883 0.000103546 0.000112246 0.000109915 0.000112932 0.000111029 0.000109453 0.000107883 0.000110473 0.000109165 0.000109915 0.000102955 0.000111029 0.000102198 0.000107883 0.000103546 0.000109165 0.000100321 9.41656e-05 9.67818e-05 0.000109453 0.000107883 9.45013e-05 9.70862e-05 0.000102645 0.00010393 9.67818e-05 9.73095e-05 0.000107883 0.000103546 9.70862e-05 9.76001e-05 0.00010393 0.000101471 0.000109453 0.000107883 0.000110473 0.000109165 0.000102645 0.00010393 0.000100476 0.000100797 0.000107883 0.000103546 0.000109165 0.000100321 0.00010393 0.000101471 0.000100797 9.81058e-05 9.51442e-05 8.29398e-05 0.000102955 9.26874e-05 9.73095e-05 8.73597e-05 0.000103546 9.55342e-05 8.29398e-05 6.88363e-05 9.26874e-05 7.91586e-05 8.73597e-05 7.5368e-05 9.55342e-05 8.5409e-05 0.000102955 9.26874e-05 0.000102198 8.43307e-05 0.000103546 9.55342e-05 0.000100321 8.87435e-05 9.26874e-05 7.91586e-05 8.43307e-05 6.77453e-05 9.55342e-05 8.5409e-05 8.87435e-05 7.55589e-05 9.73095e-05 8.73597e-05 0.000103546 9.55342e-05 9.76001e-05 9.00824e-05 0.000101471 9.52207e-05 8.73597e-05 7.5368e-05 9.55342e-05 8.5409e-05 9.00824e-05 8.12724e-05 9.52207e-05 8.83927e-05 0.000103546 9.55342e-05 0.000100321 8.87435e-05 0.000101471 9.52207e-05 9.81058e-05 8.97158e-05 9.55342e-05 8.5409e-05 8.87435e-05 7.55589e-05 9.52207e-05 8.83927e-05 8.97158e-05 7.89382e-05 9.45013e-05 9.70862e-05 0.000102645 0.00010393 8.14733e-05 8.6256e-05 9.22863e-05 9.5719e-05 9.70862e-05 9.76001e-05 0.00010393 0.000101471 8.6256e-05 9.00824e-05 9.5719e-05 9.52207e-05 0.000102645 0.00010393 0.000100476 0.000100797 9.22863e-05 9.5719e-05 8.45363e-05 8.8903e-05 0.00010393 0.000101471 0.000100797 9.81058e-05 9.5719e-05 9.52207e-05 8.8903e-05 8.97158e-05 8.14733e-05 8.6256e-05 9.22863e-05 9.5719e-05 6.70606e-05 7.35412e-05 7.77085e-05 8.43873e-05 8.6256e-05 9.00824e-05 9.5719e-05 9.52207e-05 7.35412e-05 8.12724e-05 8.43873e-05 8.83927e-05 9.22863e-05 9.5719e-05 8.45363e-05 8.8903e-05 7.77085e-05 8.43873e-05 6.54065e-05 7.39345e-05 9.5719e-05 9.52207e-05 8.8903e-05 8.97158e-05 8.43873e-05 8.83927e-05 7.39345e-05 7.89382e-05 9.07059e-05 9.38714e-05 9.41656e-05 9.67818e-05 5.11099e-05 6.82085e-05 6.85112e-05 7.85709e-05 9.38714e-05 9.51442e-05 9.67818e-05 9.73095e-05 6.82085e-05 8.29398e-05 7.85709e-05 8.73597e-05 9.41656e-05 9.67818e-05 9.45013e-05 9.70862e-05 6.85112e-05 7.85709e-05 8.14733e-05 8.6256e-05 9.67818e-05 9.73095e-05 9.70862e-05 9.76001e-05 7.85709e-05 8.73597e-05 8.6256e-05 9.00824e-05 5.11099e-05 6.82085e-05 6.85112e-05 7.85709e-05 3.8558e-06 3.76521e-05 3.86504e-05 5.69571e-05 6.82085e-05 8.29398e-05 7.85709e-05 8.73597e-05 3.76521e-05 6.88363e-05 5.69571e-05 7.5368e-05 6.85112e-05 7.85709e-05 8.14733e-05 8.6256e-05 3.86504e-05 5.69571e-05 6.70606e-05 7.35412e-05 7.85709e-05 8.73597e-05 8.6256e-05 9.00824e-05 5.69571e-05 7.5368e-05 7.35412e-05 8.12724e-05 9.69723e-05 0.000100859 0.000122027 0.000118612 0.000100677 0.00010384 0.000118519 0.00011712 0.000100859 0.000101009 0.000118612 0.000109875 0.00010384 0.000104075 0.00011712 0.000110938 0.000122027 0.000118612 0.000123965 0.000121941 0.000118519 0.00011712 0.000119297 0.000117817 0.000118612 0.000109875 0.000121941 0.000107962 0.00011712 0.000110938 0.000117817 0.000108809 0.000100677 0.00010384 0.000118519 0.00011712 0.000100524 0.000103816 0.000110115 0.000112014 0.00010384 0.000104075 0.00011712 0.000110938 0.000103816 0.000104492 0.000112014 0.000109582 0.000118519 0.00011712 0.000119297 0.000117817 0.000110115 0.000112014 0.000107571 0.000110591 0.00011712 0.000110938 0.000117817 0.000108809 0.000112014 0.000109582 0.000110591 0.00010488 0.000101009 8.73555e-05 0.000109875 9.84351e-05 0.000104075 9.29305e-05 0.000110938 0.000102597 8.73555e-05 7.19961e-05 9.84351e-05 8.41072e-05 9.29305e-05 8.00955e-05 0.000102597 9.18967e-05 0.000109875 9.84351e-05 0.000107962 8.90601e-05 0.000110938 0.000102597 0.000108809 9.5582e-05 9.84351e-05 8.41072e-05 8.90601e-05 7.21628e-05 0.000102597 9.18967e-05 9.5582e-05 8.16621e-05 0.000104075 9.29305e-05 0.000110938 0.000102597 0.000104492 9.58467e-05 0.000109582 0.000103273 9.29305e-05 8.00955e-05 0.000102597 9.18967e-05 9.58467e-05 8.58862e-05 0.000103273 9.58984e-05 0.000110938 0.000102597 0.000108809 9.5582e-05 0.000109582 0.000103273 0.00010488 9.74314e-05 0.000102597 9.18967e-05 9.5582e-05 8.16621e-05 0.000103273 9.58984e-05 9.74314e-05 8.64457e-05 0.000100524 0.000103816 0.000110115 0.000112014 8.65658e-05 9.23701e-05 9.81091e-05 0.000103729 0.000103816 0.000104492 0.000112014 0.000109582 9.23701e-05 9.58467e-05 0.000103729 0.000103273 0.000110115 0.000112014 0.000107571 0.000110591 9.81091e-05 0.000103729 8.97495e-05 9.79567e-05 0.000112014 0.000109582 0.000110591 0.00010488 0.000103729 0.000103273 9.79567e-05 9.74314e-05 8.65658e-05 9.23701e-05 9.81091e-05 0.000103729 7.10082e-05 7.93495e-05 8.46204e-05 9.27891e-05 9.23701e-05 9.58467e-05 0.000103729 0.000103273 7.93495e-05 8.58862e-05 9.27891e-05 9.58984e-05 9.81091e-05 0.000103729 8.97495e-05 9.79567e-05 8.46204e-05 9.27891e-05 7.05199e-05 8.42359e-05 0.000103729 0.000103273 9.79567e-05 9.74314e-05 9.27891e-05 9.58984e-05 8.42359e-05 8.64457e-05 9.69723e-05 0.000100859 0.000100677 0.00010384 5.27014e-05 7.23665e-05 7.26201e-05 8.45654e-05 0.000100859 0.000101009 0.00010384 0.000104075 7.23665e-05 8.73555e-05 8.45654e-05 9.29305e-05 0.000100677 0.00010384 0.000100524 0.000103816 7.26201e-05 8.45654e-05 8.65658e-05 9.23701e-05 0.00010384 0.000104075 0.000103816 0.000104492 8.45654e-05 9.29305e-05 9.23701e-05 9.58467e-05 5.27014e-05 7.23665e-05 7.26201e-05 8.45654e-05 3.8558e-06 4.10317e-05 4.17028e-05 6.24274e-05 7.23665e-05 8.73555e-05 8.45654e-05 9.29305e-05 4.10317e-05 7.19961e-05 6.24274e-05 8.00955e-05 7.26201e-05 8.45654e-05 8.65658e-05 9.23701e-05 4.17028e-05 6.24274e-05 7.10082e-05 7.93495e-05 8.45654e-05 9.29305e-05 9.23701e-05 9.58467e-05 6.24274e-05 8.00955e-05 7.93495e-05 8.58862e-05 6.90388e-05 5.97469e-05 7.92998e-05 6.66252e-05 6.04438e-05 5.57243e-05 6.55558e-05 6.04079e-05 5.97469e-05 5.31727e-05 6.66252e-05 5.71197e-05 5.57243e-05 5.23734e-05 6.04079e-05 5.63169e-05 7.92998e-05 6.66252e-05 6.87506e-05 5.53751e-05 6.55558e-05 6.04079e-05 5.54468e-05 5.15292e-05 6.66252e-05 5.71197e-05 5.53751e-05 4.91254e-05 6.04079e-05 5.63169e-05 5.15292e-05 5.03492e-05 6.04438e-05 5.57243e-05 6.55558e-05 6.04079e-05 5.50243e-05 5.36005e-05 5.85013e-05 5.74043e-05 5.57243e-05 5.23734e-05 6.04079e-05 5.63169e-05 5.36005e-05 5.26265e-05 5.74043e-05 5.60086e-05 6.55558e-05 6.04079e-05 5.54468e-05 5.15292e-05 5.85013e-05 5.74043e-05 5.15207e-05 5.25147e-05 6.04079e-05 5.63169e-05 5.15292e-05 5.03492e-05 5.74043e-05 5.60086e-05 5.25147e-05 5.24691e-05 5.31727e-05 4.43823e-05 5.71197e-05 5.20453e-05 5.23734e-05 4.59041e-05 5.63169e-05 5.35585e-05 4.43823e-05 4.09065e-05 5.20453e-05 5.10362e-05 4.59041e-05 4.29382e-05 5.35585e-05 5.2356e-05 5.71197e-05 5.20453e-05 4.91254e-05 5.17964e-05 5.63169e-05 5.35585e-05 5.03492e-05 5.39918e-05 5.20453e-05 5.10362e-05 5.17964e-05 5.58905e-05 5.35585e-05 5.2356e-05 5.39918e-05 5.61643e-05 5.23734e-05 4.59041e-05 5.63169e-05 5.35585e-05 5.26265e-05 4.88096e-05 5.60086e-05 5.57915e-05 4.59041e-05 4.29382e-05 5.35585e-05 5.2356e-05 4.88096e-05 4.639e-05 5.57915e-05 5.52057e-05 5.63169e-05 5.35585e-05 5.03492e-05 5.39918e-05 5.60086e-05 5.57915e-05 5.24691e-05 5.56041e-05 5.35585e-05 5.2356e-05 5.39918e-05 5.61643e-05 5.57915e-05 5.52057e-05 5.56041e-05 5.80518e-05 5.50243e-05 5.36005e-05 5.85013e-05 5.74043e-05 4.80409e-05 4.8213e-05 5.56456e-05 5.54548e-05 5.36005e-05 5.26265e-05 5.74043e-05 5.60086e-05 4.8213e-05 4.88096e-05 5.54548e-05 5.57915e-05 5.85013e-05 5.74043e-05 5.15207e-05 5.25147e-05 5.56456e-05 5.54548e-05 5.58547e-05 5.72862e-05 5.74043e-05 5.60086e-05 5.25147e-05 5.24691e-05 5.54548e-05 5.57915e-05 5.72862e-05 5.56041e-05 4.80409e-05 4.8213e-05 5.56456e-05 5.54548e-05 4.32081e-05 4.45336e-05 5.37089e-05 5.47422e-05 4.8213e-05 4.88096e-05 5.54548e-05 5.57915e-05 4.45336e-05 4.639e-05 5.47422e-05 5.52057e-05 5.56456e-05 5.54548e-05 5.58547e-05 5.72862e-05 5.37089e-05 5.47422e-05 5.91747e-05 5.89307e-05 5.54548e-05 5.57915e-05 5.72862e-05 5.56041e-05 5.47422e-05 5.52057e-05 5.89307e-05 5.80518e-05 6.90388e-05 5.97469e-05 6.04438e-05 5.57243e-05 3.73676e-05 3.79513e-05 4.06304e-05 4.25956e-05 5.97469e-05 5.31727e-05 5.57243e-05 5.23734e-05 3.79513e-05 4.43823e-05 4.25956e-05 4.59041e-05 6.04438e-05 5.57243e-05 5.50243e-05 5.36005e-05 4.06304e-05 4.25956e-05 4.80409e-05 4.8213e-05 5.57243e-05 5.23734e-05 5.36005e-05 5.26265e-05 4.25956e-05 4.59041e-05 4.8213e-05 4.88096e-05 3.73676e-05 3.79513e-05 4.06304e-05 4.25956e-05 3.8558e-06 2.16693e-05 2.36592e-05 3.32023e-05 3.79513e-05 4.43823e-05 4.25956e-05 4.59041e-05 2.16693e-05 4.09065e-05 3.32023e-05 4.29382e-05 4.06304e-05 4.25956e-05 4.80409e-05 4.8213e-05 2.36592e-05 3.32023e-05 4.32081e-05 4.45336e-05 4.25956e-05 4.59041e-05 4.8213e-05 4.88096e-05 3.32023e-05 4.29382e-05 4.45336e-05 4.639e-05 4.33854e-05 4.78885e-05 5.24859e-05 5.49272e-05 4.47863e-05 4.86133e-05 5.3221e-05 5.5609e-05 4.78885e-05 5.64352e-05 5.49272e-05 6.10911e-05 4.86133e-05 5.51809e-05 5.5609e-05 5.90853e-05 5.24859e-05 5.49272e-05 5.60219e-05 5.43827e-05 5.3221e-05 5.5609e-05 5.59737e-05 5.50747e-05 5.49272e-05 6.10911e-05 5.43827e-05 5.21797e-05 5.5609e-05 5.90853e-05 5.50747e-05 5.2508e-05 4.47863e-05 4.86133e-05 5.3221e-05 5.5609e-05 4.71488e-05 5.00681e-05 5.58823e-05 5.61765e-05 4.86133e-05 5.51809e-05 5.5609e-05 5.90853e-05 5.00681e-05 5.44419e-05 5.61765e-05 5.77334e-05 5.3221e-05 5.5609e-05 5.59737e-05 5.50747e-05 5.58823e-05 5.61765e-05 5.66039e-05 5.64977e-05 5.5609e-05 5.90853e-05 5.50747e-05 5.2508e-05 5.61765e-05 5.77334e-05 5.64977e-05 5.32461e-05 5.64352e-05 6.39129e-05 6.10911e-05 7.32455e-05 5.51809e-05 5.8881e-05 5.90853e-05 6.46469e-05 6.39129e-05 7.26511e-05 7.32455e-05 8.6564e-05 5.8881e-05 6.32656e-05 6.46469e-05 7.01705e-05 6.10911e-05 7.32455e-05 5.21797e-05 6.07543e-05 5.90853e-05 6.46469e-05 5.2508e-05 5.43843e-05 7.32455e-05 8.6564e-05 6.07543e-05 7.34164e-05 6.46469e-05 7.01705e-05 5.43843e-05 5.85102e-05 5.51809e-05 5.8881e-05 5.90853e-05 6.46469e-05 5.44419e-05 5.5632e-05 5.77334e-05 6.00497e-05 5.8881e-05 6.32656e-05 6.46469e-05 7.01705e-05 5.5632e-05 5.67889e-05 6.00497e-05 6.14643e-05 5.90853e-05 6.46469e-05 5.2508e-05 5.43843e-05 5.77334e-05 6.00497e-05 5.32461e-05 5.38117e-05 6.46469e-05 7.01705e-05 5.43843e-05 5.85102e-05 6.00497e-05 6.14643e-05 5.38117e-05 5.40861e-05 4.71488e-05 5.00681e-05 5.58823e-05 5.61765e-05 4.43301e-05 4.9113e-05 5.42736e-05 5.64807e-05 5.00681e-05 5.44419e-05 5.61765e-05 5.77334e-05 4.9113e-05 5.5632e-05 5.64807e-05 6.00497e-05 5.58823e-05 5.61765e-05 5.66039e-05 5.64977e-05 5.42736e-05 5.64807e-05 5.80208e-05 5.69257e-05 5.61765e-05 5.77334e-05 5.64977e-05 5.32461e-05 5.64807e-05 6.00497e-05 5.69257e-05 5.38117e-05 4.43301e-05 4.9113e-05 5.42736e-05 5.64807e-05 4.18847e-05 4.82116e-05 5.30661e-05 5.69124e-05 4.9113e-05 5.5632e-05 5.64807e-05 6.00497e-05 4.82116e-05 5.67889e-05 5.69124e-05 6.14643e-05 5.42736e-05 5.64807e-05 5.80208e-05 5.69257e-05 5.30661e-05 5.69124e-05 5.73726e-05 5.72759e-05 5.64807e-05 6.00497e-05 5.69257e-05 5.38117e-05 5.69124e-05 6.14643e-05 5.72759e-05 5.40861e-05 4.33854e-05 4.78885e-05 4.47863e-05 4.86133e-05 2.47993e-05 4.3876e-05 3.45392e-05 4.6243e-05 4.78885e-05 5.64352e-05 4.86133e-05 5.51809e-05 4.3876e-05 6.39129e-05 4.6243e-05 5.8881e-05 4.47863e-05 4.86133e-05 4.71488e-05 5.00681e-05 3.45392e-05 4.6243e-05 4.43301e-05 4.9113e-05 4.86133e-05 5.51809e-05 5.00681e-05 5.44419e-05 4.6243e-05 5.8881e-05 4.9113e-05 5.5632e-05 2.47993e-05 4.3876e-05 3.45392e-05 4.6243e-05 3.8558e-06 4.30685e-05 2.34034e-05 4.43063e-05 4.3876e-05 6.39129e-05 4.6243e-05 5.8881e-05 4.30685e-05 7.26511e-05 4.43063e-05 6.32656e-05 3.45392e-05 4.6243e-05 4.43301e-05 4.9113e-05 2.34034e-05 4.43063e-05 4.18847e-05 4.82116e-05 4.6243e-05 5.8881e-05 4.9113e-05 5.5632e-05 4.43063e-05 6.32656e-05 4.82116e-05 5.67889e-05 4.33854e-05 4.47863e-05 5.24859e-05 5.3221e-05 4.57931e-05 4.69069e-05 5.30689e-05 5.41075e-05 4.47863e-05 4.71488e-05 5.3221e-05 5.58823e-05 4.69069e-05 4.87916e-05 5.41075e-05 5.54885e-05 5.24859e-05 5.3221e-05 5.60219e-05 5.59737e-05 5.30689e-05 5.41075e-05 5.56732e-05 5.63041e-05 5.3221e-05 5.58823e-05 5.59737e-05 5.66039e-05 5.41075e-05 5.54885e-05 5.63041e-05 5.70252e-05 4.57931e-05 4.69069e-05 5.30689e-05 5.41075e-05 5.24115e-05 5.14632e-05 5.70838e-05 5.64966e-05 4.69069e-05 4.87916e-05 5.41075e-05 5.54885e-05 5.14632e-05 5.17233e-05 5.64966e-05 5.57558e-05 5.30689e-05 5.41075e-05 5.56732e-05 5.63041e-05 5.70838e-05 5.64966e-05 5.08786e-05 5.16503e-05 5.41075e-05 5.54885e-05 5.63041e-05 5.70252e-05 5.64966e-05 5.57558e-05 5.16503e-05 5.25463e-05 4.71488e-05 4.43301e-05 5.58823e-05 5.42736e-05 4.87916e-05 4.67021e-05 5.54885e-05 5.41834e-05 4.43301e-05 4.18847e-05 5.42736e-05 5.30661e-05 4.67021e-05 4.56838e-05 5.41834e-05 5.3666e-05 5.58823e-05 5.42736e-05 5.66039e-05 5.80208e-05 5.54885e-05 5.41834e-05 5.70252e-05 5.61422e-05 5.42736e-05 5.30661e-05 5.80208e-05 5.73726e-05 5.41834e-05 5.3666e-05 5.61422e-05 5.49689e-05 4.87916e-05 4.67021e-05 5.54885e-05 5.41834e-05 5.17233e-05 5.13536e-05 5.57558e-05 5.57465e-05 4.67021e-05 4.56838e-05 5.41834e-05 5.3666e-05 5.13536e-05 5.18635e-05 5.57465e-05 5.55694e-05 5.54885e-05 5.41834e-05 5.70252e-05 5.61422e-05 5.57558e-05 5.57465e-05 5.25463e-05 5.16231e-05 5.41834e-05 5.3666e-05 5.61422e-05 5.49689e-05 5.57465e-05 5.55694e-05 5.16231e-05 4.93352e-05 5.24115e-05 5.14632e-05 5.70838e-05 5.64966e-05 5.7949e-05 5.31602e-05 6.59852e-05 5.86929e-05 5.14632e-05 5.17233e-05 5.64966e-05 5.57558e-05 5.31602e-05 5.13536e-05 5.86