# vtk DataFile Version 3.0
#This file was generated by the deal.II library on 2025/4/16 at 17:55:56
ASCII
DATASET UNSTRUCTURED_GRID

POINTS 8192 double
-0.352973 9.03937e-05 -0.354474
-0.461395 -0.00161765 -0.298753
-0.528245 -0.0100116 -0.529746
-0.638777 -0.00984375 -0.424347
-0.413787 -0.11725 -0.30046
-0.507304 -0.105715 -0.258788
-0.59074 -0.165766 -0.432485
-0.676581 -0.144452 -0.356634
-0.461395 -0.00161765 -0.298753
-0.568339 7.68354e-05 -0.236388
-0.638777 -0.00984375 -0.424347
-0.743166 -0.00562457 -0.312143
-0.507304 -0.105715 -0.258788
-0.599796 -0.0913194 -0.212739
-0.676581 -0.144452 -0.356634
-0.75868 -0.120608 -0.277165
-0.528245 -0.0100116 -0.529746
-0.638777 -0.00984375 -0.424347
-0.706552 7.4622e-05 -0.707994
-0.821031 -0.00280135 -0.548923
-0.59074 -0.165766 -0.432485
-0.676581 -0.144452 -0.356634
-0.773306 -0.202603 -0.564155
-0.851169 -0.173991 -0.452141
-0.638777 -0.00984375 -0.424347
-0.743166 -0.00562457 -0.312143
-0.821031 -0.00280135 -0.548923
-0.923175 6.80707e-05 -0.383307
-0.676581 -0.144452 -0.356634
-0.75868 -0.120608 -0.277165
-0.851169 -0.173991 -0.452141
-0.922137 -0.142785 -0.337685
-0.413787 -0.11725 -0.30046
-0.507304 -0.105715 -0.258788
-0.59074 -0.165766 -0.432485
-0.676581 -0.144452 -0.356634
-0.470759 -0.235476 -0.236402
-0.550069 -0.210996 -0.211922
-0.64455 -0.319889 -0.320816
-0.708164 -0.278912 -0.279839
-0.507304 -0.105715 -0.258788
-0.599796 -0.0913194 -0.212739
-0.676581 -0.144452 -0.356634
-0.75868 -0.120608 -0.277165
-0.550069 -0.210996 -0.211922
-0.62868 -0.184096 -0.184846
-0.708164 -0.278912 -0.279839
-0.769655 -0.236433 -0.237182
-0.59074 -0.165766 -0.432485
-0.676581 -0.144452 -0.356634
-0.773306 -0.202603 -0.564155
-0.851169 -0.173991 -0.452141
-0.64455 -0.319889 -0.320816
-0.708164 -0.278912 -0.279839
-0.824391 -0.399346 -0.400209
-0.87097 -0.342598 -0.34346
-0.676581 -0.144452 -0.356634
-0.75868 -0.120608 -0.277165
-0.851169 -0.173991 -0.452141
-0.922137 -0.142785 -0.337685
-0.708164 -0.278912 -0.279839
-0.769655 -0.236433 -0.237182
-0.87097 -0.342598 -0.34346
-0.914152 -0.285244 -0.285935
-0.568339 7.68354e-05 -0.236388
-0.536102 -0.0023642 -0.1163
-0.743166 -0.00562457 -0.312143
-0.748584 -0.0103766 -0.159413
-0.599796 -0.0913194 -0.212739
-0.569623 -0.105817 -0.106345
-0.75868 -0.120608 -0.277165
-0.756816 -0.142305 -0.142833
-0.536102 -0.0023642 -0.1163
-0.499192 9.10978e-05 -0.000188909
-0.748584 -0.0103766 -0.159413
-0.744876 -0.00985019 -0.0101302
-0.569623 -0.105817 -0.106345
-0.536073 -0.11576 -0.00263208
-0.756816 -0.142305 -0.142833
-0.748555 -0.158873 -0.0106445
-0.743166 -0.00562457 -0.312143
-0.748584 -0.0103766 -0.159413
-0.923175 6.80707e-05 -0.383307
-0.968569 -0.00325213 -0.191029
-0.75868 -0.120608 -0.277165
-0.756816 -0.142305 -0.142833
-0.922137 -0.142785 -0.337685
-0.950408 -0.169834 -0.1703
-0.748584 -0.0103766 -0.159413
-0.744876 -0.00985019 -0.0101302
-0.968569 -0.00325213 -0.191029
-0.999092 9.52787e-05 -0.000163074
-0.756816 -0.142305 -0.142833
-0.748555 -0.158873 -0.0106445
-0.950408 -0.169834 -0.1703
-0.968494 -0.190545 -0.00349286
-0.599796 -0.0913194 -0.212739
-0.569623 -0.105817 -0.106345
-0.75868 -0.120608 -0.277165
-0.756816 -0.142305 -0.142833
-0.62868 -0.184096 -0.184846
-0.599703 -0.211854 -0.0917727
-0.769655 -0.236433 -0.237182
-0.758587 -0.27628 -0.121061
-0.569623 -0.105817 -0.106345
-0.536073 -0.11576 -0.00263208
-0.756816 -0.142305 -0.142833
-0.748555 -0.158873 -0.0106445
-0.599703 -0.211854 -0.0917727
-0.56823 -0.23547 -0.000157672
-0.758587 -0.27628 -0.121061
-0.743057 -0.311225 -0.00585908
-0.75868 -0.120608 -0.277165
-0.756816 -0.142305 -0.142833
-0.922137 -0.142785 -0.337685
-0.950408 -0.169834 -0.1703
-0.769655 -0.236433 -0.237182
-0.758587 -0.27628 -0.121061
-0.914152 -0.285244 -0.285935
-0.922005 -0.336851 -0.14318
-0.756816 -0.142305 -0.142833
-0.748555 -0.158873 -0.0106445
-0.950408 -0.169834 -0.1703
-0.968494 -0.190545 -0.00349286
-0.758587 -0.27628 -0.121061
-0.743057 -0.311225 -0.00585908
-0.922005 -0.336851 -0.14318
-0.922995 -0.38243 -0.000136014
-0.470759 -0.235476 -0.236402
-0.550069 -0.210996 -0.211922
-0.64455 -0.319889 -0.320816
-0.708164 -0.278912 -0.279839
-0.413692 -0.299184 -0.117794
-0.507208 -0.257512 -0.106258
-0.590645 -0.431209 -0.166309
-0.676485 -0.355358 -0.144995
-0.550069 -0.210996 -0.211922
-0.62868 -0.184096 -0.184846
-0.708164 -0.278912 -0.279839
-0.769655 -0.236433 -0.237182
-0.507208 -0.257512 -0.106258
-0.599703 -0.211854 -0.0917727
-0.676485 -0.355358 -0.144995
-0.758587 -0.27628 -0.121061
-0.64455 -0.319889 -0.320816
-0.708164 -0.278912 -0.279839
-0.824391 -0.399346 -0.400209
-0.87097 -0.342598 -0.34346
-0.590645 -0.431209 -0.166309
-0.676485 -0.355358 -0.144995
-0.773139 -0.56289 -0.203073
-0.851002 -0.450876 -0.17446
-0.708164 -0.278912 -0.279839
-0.769655 -0.236433 -0.237182
-0.87097 -0.342598 -0.34346
-0.914152 -0.285244 -0.285935
-0.676485 -0.355358 -0.144995
-0.758587 -0.27628 -0.121061
-0.851002 -0.450876 -0.17446
-0.922005 -0.336851 -0.14318
-0.413692 -0.299184 -0.117794
-0.507208 -0.257512 -0.106258
-0.590645 -0.431209 -0.166309
-0.676485 -0.355358 -0.144995
-0.352895 -0.353097 -0.000179472
-0.461317 -0.297376 -0.00188752
-0.528166 -0.528369 -0.0102814
-0.638699 -0.42297 -0.0101136
-0.507208 -0.257512 -0.106258
-0.599703 -0.211854 -0.0917727
-0.676485 -0.355358 -0.144995
-0.758587 -0.27628 -0.121061
-0.461317 -0.297376 -0.00188752
-0.56823 -0.23547 -0.000157672
-0.638699 -0.42297 -0.0101136
-0.743057 -0.311225 -0.00585908
-0.590645 -0.431209 -0.166309
-0.676485 -0.355358 -0.144995
-0.773139 -0.56289 -0.203073
-0.851002 -0.450876 -0.17446
-0.528166 -0.528369 -0.0102814
-0.638699 -0.42297 -0.0101136
-0.706372 -0.706592 -0.000157085
-0.82085 -0.54752 -0.00303305
-0.676485 -0.355358 -0.144995
-0.758587 -0.27628 -0.121061
-0.851002 -0.450876 -0.17446
-0.922005 -0.336851 -0.14318
-0.638699 -0.42297 -0.0101136
-0.743057 -0.311225 -0.00585908
-0.82085 -0.54752 -0.00303305
-0.922995 -0.38243 -0.000136014
-0.352973 9.03937e-05 -0.354474
-0.461395 -0.00161765 -0.298753
-0.413787 -0.11725 -0.30046
-0.507304 -0.105715 -0.258788
-0.173623 -0.0143895 -0.174823
-0.353184 -0.0140616 -0.153078
-0.293898 -0.154763 -0.155563
-0.431494 -0.134031 -0.13483
-0.461395 -0.00161765 -0.298753
-0.568339 7.68354e-05 -0.236388
-0.507304 -0.105715 -0.258788
-0.599796 -0.0913194 -0.212739
-0.353184 -0.0140616 -0.153078
-0.536102 -0.0023642 -0.1163
-0.431494 -0.134031 -0.13483
-0.569623 -0.105817 -0.106345
-0.413787 -0.11725 -0.30046
-0.507304 -0.105715 -0.258788
-0.470759 -0.235476 -0.236402
-0.550069 -0.210996 -0.211922
-0.293898 -0.154763 -0.155563
-0.431494 -0.134031 -0.13483
-0.413692 -0.299184 -0.117794
-0.507208 -0.257512 -0.106258
-0.507304 -0.105715 -0.258788
-0.599796 -0.0913194 -0.212739
-0.550069 -0.210996 -0.211922
-0.62868 -0.184096 -0.184846
-0.431494 -0.134031 -0.13483
-0.569623 -0.105817 -0.106345
-0.507208 -0.257512 -0.106258
-0.599703 -0.211854 -0.0917727
-0.173623 -0.0143895 -0.174823
-0.353184 -0.0140616 -0.153078
-0.293898 -0.154763 -0.155563
-0.431494 -0.134031 -0.13483
0.000394774 0.000134917 -0.000284847
-0.243401 -0.0124926 -0.0129124
-0.173739 -0.173999 -0.0147848
-0.3533 -0.152254 -0.0144569
-0.353184 -0.0140616 -0.153078
-0.536102 -0.0023642 -0.1163
-0.431494 -0.134031 -0.13483
-0.569623 -0.105817 -0.106345
-0.243401 -0.0124926 -0.0129124
-0.499192 9.10978e-05 -0.000188909
-0.3533 -0.152254 -0.0144569
-0.536073 -0.11576 -0.00263208
-0.293898 -0.154763 -0.155563
-0.431494 -0.134031 -0.13483
-0.413692 -0.299184 -0.117794
-0.507208 -0.257512 -0.106258
-0.173739 -0.173999 -0.0147848
-0.3533 -0.152254 -0.0144569
-0.352895 -0.353097 -0.000179472
-0.461317 -0.297376 -0.00188752
-0.431494 -0.134031 -0.13483
-0.569623 -0.105817 -0.106345
-0.507208 -0.257512 -0.106258
-0.599703 -0.211854 -0.0917727
-0.3533 -0.152254 -0.0144569
-0.536073 -0.11576 -0.00263208
-0.461317 -0.297376 -0.00188752
-0.56823 -0.23547 -0.000157672
0.353106 -3.47055e-05 0.354413
0.410736 0.117626 0.286178
0.536971 -0.0282125 0.538278
0.596315 0.137224 0.403216
0.459546 -0.00428584 0.291948
0.503134 0.102364 0.24388
0.641207 -0.0301506 0.418651
0.677811 0.118444 0.330032
0.410736 0.117626 0.286178
0.470876 0.235529 0.236333
0.596315 0.137224 0.403216
0.660519 0.312093 0.312868
0.503134 0.102364 0.24388
0.54805 0.208306 0.209107
0.677811 0.118444 0.330032
0.717085 0.269539 0.270324
0.536971 -0.0282125 0.538278
0.596315 0.137224 0.403216
0.706702 -2.24573e-05 0.707935
0.7574 0.193295 0.520518
0.641207 -0.0301506 0.418651
0.677811 0.118444 0.330032
0.807467 -0.0161699 0.545322
0.831178 0.161679 0.422566
0.596315 0.137224 0.403216
0.660519 0.312093 0.312868
0.7574 0.193295 0.520518
0.815995 0.408082 0.40876
0.677811 0.118444 0.330032
0.717085 0.269539 0.270324
0.831178 0.161679 0.422566
0.859404 0.346572 0.347267
0.459546 -0.00428584 0.291948
0.503134 0.102364 0.24388
0.641207 -0.0301506 0.418651
0.677811 0.118444 0.330032
0.568455 -3.42202e-05 0.236328
0.597917 0.093061 0.206499
0.753326 -0.0138517 0.30481
0.766046 0.108305 0.259482
0.503134 0.102364 0.24388
0.54805 0.208306 0.209107
0.677811 0.118444 0.330032
0.717085 0.269539 0.270324
0.597917 0.093061 0.206499
0.627934 0.185006 0.185642
0.766046 0.108305 0.259482
0.780246 0.229385 0.230019
0.641207 -0.0301506 0.418651
0.677811 0.118444 0.330032
0.807467 -0.0161699 0.545322
0.831178 0.161679 0.422566
0.753326 -0.0138517 0.30481
0.766046 0.108305 0.259482
0.923299 -2.92403e-05 0.383238
0.916944 0.143641 0.323322
0.677811 0.118444 0.330032
0.717085 0.269539 0.270324
0.831178 0.161679 0.422566
0.859404 0.346572 0.347267
0.766046 0.108305 0.259482
0.780246 0.229385 0.230019
0.916944 0.143641 0.323322
0.913325 0.286785 0.287337
0.470876 0.235529 0.236333
0.410607 0.285021 0.118045
0.660519 0.312093 0.312868
0.596188 0.402077 0.137629
0.54805 0.208306 0.209107
0.503005 0.242724 0.102781
0.717085 0.269539 0.270324
0.677683 0.328886 0.118854
0.410607 0.285021 0.118045
0.352977 0.353153 9.22079e-05
0.596188 0.402077 0.137629
0.536842 0.537018 -0.0280856
[...]
POINT_DATA 8192
SCALARS A_0 double 1
LOOKUP_TABLE default
1.0007 1.00071 1.00283 1.00036 0.999482 0.997246 0.999808 0.996022 1.00071 0.996989 1.00036 0.994669 0.997246 0.994164 0.996022 0.993261 1.00283 1.00036 1.00562 1.00027 0.999808 0.996022 0.999762 0.995304 1.00036 0.994669 1.00027 0.996011 0.996022 0.993261 0.995304 0.99202 0.999482 0.997246 0.999808 0.996022 0.998457 0.99644 0.996801 0.995536 0.997246 0.994164 0.996022 0.993261 0.99644 0.995451 0.995536 0.993811 0.999808 0.996022 0.999762 0.995304 0.996801 0.995536 0.995892 0.992793 0.996022 0.993261 0.995304 0.99202 0.995536 0.993811 0.992793 0.992184 0.996989 0.996104 0.994669 0.993383 0.994164 0.994132 0.993261 0.992056 0.996104 0.99676 0.993383 0.991529 0.994132 0.994168 0.992056 0.990894 0.994669 0.993383 0.996011 0.99179 0.993261 0.992056 0.99202 0.98816 0.993383 0.991529 0.99179 0.989101 0.992056 0.990894 0.98816 0.989212 0.994164 0.994132 0.993261 0.992056 0.995451 0.995813 0.993811 0.993063 0.994132 0.994168 0.992056 0.990894 0.995813 0.994811 0.993063 0.992268 0.993261 0.992056 0.99202 0.98816 0.993811 0.993063 0.992184 0.991287 0.992056 0.990894 0.98816 0.989212 0.993063 0.992268 0.991287 0.989848 0.998457 0.99644 0.996801 0.995536 0.996713 0.995698 0.993738 0.992495 0.99644 0.995451 0.995536 0.993811 0.995698 0.995813 0.992495 0.993063 0.996801 0.995536 0.995892 0.992793 0.993738 0.992495 0.987229 0.990488 0.995536 0.993811 0.992793 0.992184 0.992495 0.993063 0.990488 0.991287 0.996713 0.995698 0.993738 0.992495 0.996421 0.996269 0.993932 0.990566 0.995698 0.995813 0.992495 0.993063 0.996269 0.994811 0.990566 0.992268 0.993738 0.992495 0.987229 0.990488 0.993932 0.990566 0.990737 0.990585 0.992495 0.993063 0.990488 0.991287 0.990566 0.992268 0.990585 0.989848 1.0007 1.00071 0.999482 0.997246 0.999661 0.998587 0.998439 0.995904 1.00071 0.996989 0.997246 0.994164 0.998587 0.996104 0.995904 0.994132 0.999482 0.997246 0.998457 0.99644 0.998439 0.995904 0.996713 0.995698 0.997246 0.994164 0.99644 0.995451 0.995904 0.994132 0.995698 0.995813 0.999661 0.998587 0.998439 0.995904 0.998524 0.998073 0.997658 0.995859 0.998587 0.996104 0.995904 0.994132 0.998073 0.99676 0.995859 0.994168 0.998439 0.995904 0.996713 0.995698 0.997658 0.995859 0.996421 0.996269 0.995904 0.994132 0.995698 0.995813 0.995859 0.994168 0.996269 0.994811 1.0012 0.999504 1.00346 0.999526 0.999579 0.99754 0.999592 0.996478 0.999504 0.997348 0.999526 0.996384 0.99754 0.997053 0.996478 0.995168 1.00346 0.999526 1.00499 0.999306 0.999592 0.996478 0.999492 0.995551 0.999526 0.996384 0.999306 0.99553 0.996478 0.995168 0.995551 0.993895 0.999579 0.99754 0.999592 0.996478 0.995612 0.994364 0.994832 0.992791 0.99754 0.997053 0.996478 0.995168 0.994364 0.995745 0.992791 0.993659 0.999592 0.996478 0.999492 0.995551 0.994832 0.992791 0.993691 0.993643 0.996478 0.995168 0.995551 0.993895 0.992791 0.993659 0.993643 0.989606 0.997348 0.997142 0.996384 0.991961 0.997053 0.99567 0.995168 0.991338 0.997142 0.997777 0.991961 0.99358 0.99567 0.994115 0.991338 0.990773 0.996384 0.991961 0.99553 0.991615 0.995168 0.991338 0.993895 0.992123 0.991961 0.99358 0.991615 0.993532 0.991338 0.990773 0.992123 0.986567 0.997053 0.99567 0.995168 0.991338 0.995745 0.995996 0.993659 0.992636 0.99567 0.994115 0.991338 0.990773 0.995996 0.996476 0.992636 0.993102 0.995168 0.991338 0.993895 0.992123 0.993659 0.992636 0.989606 0.991753 0.991338 0.990773 0.992123 0.986567 0.992636 0.993102 0.991753 0.994352 0.995612 0.994364 0.994832 0.992791 0.995603 0.995042 0.993566 0.993159 0.994364 0.995745 0.992791 0.993659 0.995042 0.995996 0.993159 0.992636 0.994832 0.992791 0.993691 0.993643 0.993566 0.993159 0.993618 0.992926 0.992791 0.993659 0.993643 0.989606 0.993159 0.992636 0.992926 0.991753 0.995603 0.995042 0.993566 0.993159 0.996009 0.996536 0.991967 0.991975 0.995042 0.995996 0.993159 0.992636 0.996536 0.996476 0.991975 0.993102 0.993566 0.993159 0.993618 0.992926 0.991967 0.991975 0.989699 0.989986 0.993159 0.992636 0.992926 0.991753 0.991975 0.993102 0.989986 0.994352 1.0012 0.999504 0.999579 0.99754 0.999751 0.998044 0.99781 0.99714 0.999504 0.997348 0.99754 0.997053 0.998044 0.997142 0.99714 0.99567 0.999579 0.99754 0.995612 0.994364 0.99781 0.99714 0.995603 0.995042 0.99754 0.997053 0.994364 0.995745 0.99714 0.99567 0.995042 0.995996 0.999751 0.998044 0.99781 0.99714 0.998524 1.00159 0.99937 0.99537 0.998044 0.997142 0.99714 0.99567 1.00159 0.997777 0.99537 0.994115 0.99781 0.99714 0.995603 0.995042 0.99937 0.99537 0.996009 0.996536 0.99714 0.99567 0.995042 0.995996 0.99537 0.994115 0.996536 0.996476 1.00753 1.00778 1.01014 1.0136 1.00709 1.00806 1.01488 1.01376 1.00778 1.0068 1.0136 1.01245 1.00806 1.00693 1.01376 1.01023 1.01014 1.0136 1.01237 1.01607 1.01488 1.01376 1.01174 1.0117 1.0136 1.01245 1.01607 1.01103 1.01376 1.01023 1.0117 1.01234 1.00709 1.00806 1.01488 1.01376 1.00778 1.00815 1.01423 1.01429 1.00806 1.00693 1.01376 1.01023 1.00815 1.00818 1.01429 1.00851 1.01488 1.01376 1.01174 1.0117 1.01423 1.01429 1.0083 1.01495 1.01376 1.01023 1.0117 1.01234 1.01429 1.00851 1.01495 1.01037 1.0068 1.00467 1.01245 1.00803 1.00693 1.00554 1.01023 1.00894 1.00467 1.002 1.00803 1.00228 1.00554 1.00239 1.00894 1.00719 1.01245 1.00803 1.01103 1.00987 1.01023 1.00894 1.01234 1.01312 1.00803 1.00228 1.00987 1.00601 1.00894 1.00719 1.01312 1.00594 1.00693 1.00554 1.01023 1.00894 1.00818 1.00797 1.00851 1.00774 1.00554 1.00239 1.00894 1.00719 1.00797 1.005 1.00774 1.00847 1.01023 1.00894 1.01234 1.01312 1.00851 1.00774 1.01037 1.00942 1.00894 1.00719 1.01312 1.00594 1.00774 1.00847 1.00942 1.00767 1.00778 1.00815 1.01423 1.01429 1.0054 1.00532 1.00822 1.01054 1.00815 1.00818 1.01429 1.00851 1.00532 1.00797 1.01054 1.00774 1.01423 1.01429 1.0083 1.01495 1.00822 1.01054 1.01135 1.01248 1.01429 1.00851 1.01495 1.01037 1.01054 1.00774 1.01248 1.00942 1.0054 1.00532 1.00822 1.01054 1.00137 1.00258 1.00318 1.00401 1.00532 1.00797 1.01054 1.00774 1.00258 1.005 1.00401 1.00847 1.00822 1.01054 1.01135 1.01248 1.00318 1.00401 1.00567 1.00647 1.01054 1.00774 1.01248 1.00942 1.00401 1.00847 1.00647 1.00767 1.00753 1.00778 1.00709 1.00806 0.998821 1.00146 1.00237 1.00186 1.00778 1.0068 1.00806 1.00693 1.00146 1.00467 1.00186 1.00554 1.00709 1.00806 1.00778 1.00815 1.00237 1.00186 1.0054 1.00532 1.00806 1.00693 1.00815 1.00818 1.00186 1.00554 1.00532 1.00797 0.998821 1.00146 1.00237 1.00186 0.998524 0.995961 0.997622 1.00073 1.00146 1.00467 1.00186 1.00554 0.995961 1.002 1.00073 1.00239 1.00237 1.00186 1.0054 1.00532 0.997622 1.00073 1.00137 1.00258 1.00186 1.00554 1.00532 1.00797 1.00073 1.00239 1.00258 1.005 1.00865 1.00827 1.01415 1.01373 1.0071 1.00843 1.01044 1.00862 1.00827 1.00959 1.01373 1.01142 1.00843 1.01131 1.00862 1.01468 1.01415 1.01373 1.02169 1.01809 1.01044 1.00862 1.02218 1.02019 1.01373 1.01142 1.01809 1.01001 1.00862 1.01468 1.02019 1.01192 1.0071 1.00843 1.01044 1.00862 1.00777 1.00799 1.01032 1.01165 1.00843 1.01131 1.00862 1.01468 1.00799 1.00943 1.01165 1.01525 1.01044 1.00862 1.02218 1.02019 1.01032 1.01165 1.01478 1.01708 1.00862 1.01468 1.02019 1.01192 1.01165 1.01525 1.01708 1.01829 1.00959 1.00569 1.01142 1.0084 1.01131 1.0062 1.01468 1.00654 1.00569 1.00105 1.0084 1.00343 1.0062 1.00226 1.00654 1.00692 1.01142 1.0084 1.01001 1.01555 1.01468 1.00654 1.01192 1.01251 1.0084 1.00343 1.01555 1.00349 1.00654 1.00692 1.01251 1.00688 1.01131 1.0062 1.01468 1.00654 1.00943 1.00701 1.01525 1.01095 1.0062 1.00226 1.00654 1.00692 1.00701 1.00484 1.01095 1.00805 1.01468 1.00654 1.01192 1.01251 1.01525 1.01095 1.01829 1.01757 1.00654 1.00692 1.01251 1.00688 1.01095 1.00805 1.01757 1.01467 1.00777 1.00799 1.01032 1.01165 1.00471 1.0057 1.00864 1.00772 1.00799 1.00943 1.01165 1.01525 1.0057 1.00701 1.00772 1.01095 1.01032 1.01165 1.01478 1.01708 1.00864 1.00772 1.00325 1.01595 1.01165 1.01525 1.01708 1.01829 1.00772 1.01095 1.01595 1.01757 1.00471 1.0057 1.00864 1.00772 1.0002 1.00219 1.00266 1.0057 1.0057 1.00701 1.00772 1.01095 1.00219 1.00484 1.0057 1.00805 1.00864 1.00772 1.00325 1.01595 1.00266 1.0057 1.00357 1.00438 1.00772 1.01095 1.01595 1.01757 1.0057 1.00805 1.00438 1.01467 1.00865 1.00827 1.0071 1.00843 0.999487 1.00168 1.00051 1.00121 1.00827 1.00959 1.00843 1.01131 1.00168 1.00569 1.00121 1.0062 1.0071 1.00843 1.00777 1.00799 1.00051 1.00121 1.00471 1.0057 1.00843 1.01131 1.00799 1.00943 1.00121 1.0062 1.0057 1.00701 0.999487 1.00168 1.00051 1.00121 0.998524 0.997286 0.998811 0.999374 1.00168 1.00569 1.00121 1.0062 0.997286 1.00105 0.999374 1.00226 1.00051 1.00121 1.00471 1.0057 0.998811 0.999374 1.0002 1.00219 1.00121 1.0062 1.0057 1.00701 0.999374 1.00226 1.00219 1.00484 1.00133 0.999763 1.00258 0.999551 0.999586 0.997351 0.999377 0.995883 0.999763 0.999131 0.999551 0.997229 0.997351 0.996546 0.995883 0.995225 1.00258 0.999551 1.00532 0.999918 0.999377 0.995883 0.999468 0.997252 0.999551 0.997229 0.999918 0.996429 0.995883 0.995225 0.997252 0.996722 0.999586 0.997351 0.999377 0.995883 0.99656 0.995131 0.995458 0.992646 0.997351 0.996546 0.995883 0.995225 0.995131 0.995148 0.992646 0.992385 0.999377 0.995883 0.999468 0.997252 0.995458 0.992646 0.993505 0.990321 0.995883 0.995225 0.997252 0.996722 0.992646 0.992385 0.990321 0.990285 0.999131 0.995956 0.997229 0.993269 0.996546 0.995814 0.995225 0.992549 0.995956 0.996012 0.993269 0.990535 0.995814 0.995494 0.992549 0.990978 0.997229 0.993269 0.996429 0.991526 0.995225 0.992549 0.996722 0.995131 0.993269 0.990535 0.991526 0.990229 0.992549 0.990978 0.995131 0.990859 0.996546 0.995814 0.995225 0.992549 0.995148 0.995156 0.992385 0.991343 0.995814 0.995494 0.992549 0.990978 0.995156 0.996165 0.991343 0.990853 0.995225 0.992549 0.996722 0.995131 0.992385 0.991343 0.990285 0.987478 0.992549 0.990978 0.995131 0.990859 0.991343 0.990853 0.987478 0.993128 0.99656 0.995131 0.995458 0.992646 0.994848 0.994383 0.992636 0.990761 0.995131 0.995148 0.992646 0.992385 0.994383 0.995156 0.990761 0.991343 0.995458 0.992646 0.993505 0.990321 0.992636 0.990761 0.989331 0.988765 0.992646 0.992385 0.990321 0.990285 0.990761 0.991343 0.988765 0.987478 0.994848 0.994383 0.992636 0.990761 0.994828 0.995359 0.992223 0.992031 0.994383 0.995156 0.990761 0.991343 0.995359 0.996165 0.992031 0.990853 0.992636 0.990761 0.989331 0.988765 0.992223 0.992031 0.990909 0.988167 0.990761 0.991343 0.988765 0.987478 0.992031 0.990853 0.988167 0.993128 1.00133 0.999763 0.999586 0.997351 0.998336 0.998353 0.997526 0.996445 0.999763 0.999131 0.997351 0.996546 0.998353 0.995956 0.996445 0.995814 0.999586 0.997351 0.99656 0.995131 0.997526 0.996445 0.994848 0.994383 0.997351 0.996546 0.995131 0.995148 0.996445 0.995814 0.994383 0.995156 0.998336 0.998353 0.997526 0.996445 0.998524 0.999417 0.997807 0.996406 0.998353 0.995956 0.996445 0.995814 0.999417 0.996012 0.996406 0.995494 0.997526 0.996445 0.994848 0.994383 0.997807 0.996406 0.994828 0.995359 0.996445 0.995814 0.994383 0.995156 0.996406 0.995494 0.995359 0.996165 0.997125 0.997082 0.993954 0.994315 0.995809 0.99608 0.992628 0.994683 0.997082 0.997033 0.994315 0.994382 0.99608 0.995655 0.994683 0.994649 0.993954 0.994315 0.988336 0.994698 0.992628 0.994683 0.989684 0.992608 0.994315 0.994382 0.994698 0.995491 0.994683 0.994649 0.992608 0.996427 0.995809 0.99608 0.992628 0.994683 0.996869 0.996232 0.992634 0.995198 0.99608 0.995655 0.994683 0.994649 0.996232 0.995117 0.995198 0.993899 0.992628 0.994683 0.989684 0.992608 0.992634 0.995198 0.987207 0.994354 0.994683 0.994649 0.992608 0.996427 0.995198 0.993899 0.994354 0.994283 0.997033 0.999151 0.994382 1.001 0.995655 0.997036 0.994649 0.998528 0.999151 1.00017 1.001 1.00391 0.997036 0.998807 0.998528 1.00123 0.994382 1.001 0.995491 1.0005 0.994649 0.998528 0.996427 0.996627 1.001 1.00391 1.0005 1.00503 0.998528 1.00123 0.996627 1.00015 0.995655 0.997036 0.994649 0.998528 0.995117 0.994582 0.993899 0.993321 0.997036 0.998807 0.998528 1.00123 0.994582 0.994686 0.993321 0.994962 0.994649 0.998528 0.996427 0.996627 0.993899 0.993321 0.994283 0.990423 0.998528 1.00123 0.996627 1.00015 0.993321 0.994962 0.990423 0.993117 0.996869 0.996232 0.992634 0.995198 0.997582 0.996619 0.992308 0.992024 0.996232 0.995117 0.995198 0.993899 0.996619 0.994582 0.992024 0.993321 0.992634 0.995198 0.987207 0.994354 0.992308 0.992024 0.991543 0.991152 0.995198 0.993899 0.994354 0.994283 0.992024 0.993321 0.991152 0.990423 0.997582 0.996619 0.992308 0.992024 0.99748 0.997099 0.994495 0.992753 0.996619 0.994582 0.992024 0.993321 0.997099 0.994686 0.992753 0.994962 0.992308 0.992024 0.991543 0.991152 0.994495 0.992753 0.990685 0.990083 0.992024 0.993321 0.991152 0.990423 0.992753 0.994962 0.990083 0.993117 0.997125 0.997082 0.995809 0.99608 1.0001 0.999249 0.999271 0.998437 0.997082 0.997033 0.99608 0.995655 0.999249 0.999151 0.998437 0.997036 0.995809 0.99608 0.996869 0.996232 0.999271 0.998437 0.997582 0.996619 0.99608 0.995655 0.996232 0.995117 0.998437 0.997036 0.996619 0.994582 1.0001 0.999249 0.999271 0.998437 0.998524 1.00078 1.00175 0.999904 0.999249 0.999151 0.998437 0.997036 1.00078 1.00017 0.999904 0.998807 0.999271 0.998437 0.997582 0.996619 1.00175 0.999904 0.99748 0.997099 0.998437 0.997036 0.996619 0.994582 0.999904 0.998807 0.997099 0.994686 0.997125 0.995809 0.993954 0.992628 0.995171 0.994027 0.993477 0.989713 0.995809 0.996869 0.992628 0.992634 0.994027 0.995343 0.989713 0.992355 0.993954 0.992628 0.988336 0.989684 0.993477 0.989713 0.99473 0.993559 0.992628 0.992634 0.989684 0.987207 0.989713 0.992355 0.993559 0.990686 0.995171 0.994027 0.993477 0.989713 0.996888 0.995874 0.996273 0.994297 0.994027 0.995343 0.989713 0.992355 0.995874 0.995466 0.994297 0.992266 0.993477 0.989713 0.99473 0.993559 0.996273 0.994297 0.994157 0.993017 0.989713 0.992355 0.993559 0.990686 0.994297 0.992266 0.993017 0.991868 0.996869 0.997582 0.992634 0.992308 0.995343 0.995261 0.992355 0.995501 0.997582 0.99748 0.992308 0.994495 0.995261 0.996881 0.995501 0.993745 0.992634 0.992308 0.987207 0.991543 0.992355 0.995501 0.990686 0.99353 0.992308 0.994495 0.991543 0.990685 0.995501 0.993745 0.99353 0.992367 0.995343 0.995261 0.992355 0.995501 0.995466 0.995758 0.992266 0.992989 0.995261 0.996881 0.995501 0.993745 0.995758 0.995261 0.992989 0.994994 0.992355 0.995501 0.990686 0.99353 0.992266 0.992989 0.991868 0.991735 0.995501 0.993745 0.99353 0.992367 0.992989 0.994994 0.991735 0.990809 0.996888 0.995874 0.996273 0.994297 0.998703 0.997297 0.999376 0.996562 0.995874 0.995466 0.994297 0.992266 0.997297 0.995758 0.996562 0.992989 0.996273 0.994297 0.994157 0.993017 0.999376 0.996562 1.00047 0.994991 0.994297 0.992266 0.993017 0.991868 0.996562 0.992989 0.994991 0.991735 0.998703 0.997297 0.999376 0.996562 1.00137 0.997639 1.00318 0.998362 0.997297 0.995758 0.996562 0.992989 0.997639 0.995261 0.998362 0.994994 0.999376 0.996562 1.00047 0.994991 1.00318 0.998362 1.00567 0.998652 0.996562 0.992989 0.994991 0.991735 0.998362 0.994994 0.998652 0.990809 0.997125 0.995809 0.995171 0.994027 1.0001 0.999271 0.997873 0.997015 0.995809 0.996869 0.994027 0.995343 0.999271 0.997582 0.997015 0.995261 0.995171 0.994027 0.996888 0.995874 0.997873 0.997015 0.998703 0.997297 0.994027 0.995343 0.995874 0.995466 0.997015 0.995261 0.997297 0.995758 1.0001 0.999271 0.997873 0.997015 0.998524 1.00175 0.997622 0.996439 0.999271 0.997582 0.997015 0.995261 1.00175 0.99748 0.996439 0.996881 0.997873 0.997015 0.998703 0.997297 0.997622 0.996439 1.00137 0.997639 0.997015 0.995261 0.997297 0.995758 0.996439 0.996881 0.997639 0.995261 1.0012 0.999579 1.00346 0.999592 1.0007 0.998654 1.00103 0.99722 0.999579 0.995612 0.999592 0.994832 0.998654 0.996183 0.99722 0.994812 1.00346 0.999592 1.00499 0.999492 1.00103 0.99722 1.0008 0.997728 0.999592 0.994832 0.999492 0.993691 0.99722 0.994812 0.997728 0.997045 1.0007 0.998654 1.00103 0.99722 0.997527 0.996362 0.995079 0.994555 0.998654 0.996183 0.99722 0.994812 0.996362 0.994624 0.994555 0.992733 1.00103 0.99722 1.0008 0.997728 0.995079 0.994555 0.99159 0.993927 0.99722 0.994812 0.997728 0.997045 0.994555 0.992733 0.993927 0.993089 0.995612 0.995603 0.994832 0.993566 0.996183 0.997009 0.994812 0.992404 0.995603 0.996009 0.993566 0.991967 0.997009 0.996482 0.992404 0.99347 0.994832 0.993566 0.993691 0.993618 0.994812 0.992404 0.997045 0.988454 0.993566 0.991967 0.993618 0.989699 0.992404 0.99347 0.988454 0.992433 0.996183 0.997009 0.994812 0.992404 0.994624 0.995062 0.992733 0.990893 0.997009 0.996482 0.992404 0.99347 0.995062 0.99596 0.990893 0.993223 0.994812 0.992404 0.997045 0.988454 0.992733 0.990893 0.993089 0.992526 0.992404 0.99347 0.988454 0.992433 0.990893 0.993223 0.992526 0.986951 0.997527 0.996362 0.995079 0.994555 0.996706 0.994897 0.993694 0.991564 0.996362 0.994624 0.994555 0.992733 0.994897 0.995062 0.991564 0.990893 0.995079 0.994555 0.99159 0.993927 0.993694 0.991564 0.995778 0.991877 0.994555 0.992733 0.993927 0.993089 0.991564 0.990893 0.991877 0.992526 0.996706 0.994897 0.993694 0.991564 0.996012 0.99626 0.990535 0.993634 0.994897 0.995062 0.991564 0.990893 0.99626 0.99596 0.993634 0.993223 0.993694 0.991564 0.995778 0.991877 0.990535 0.993634 0.990229 0.991161 0.991564 0.990893 0.991877 0.992526 0.993634 0.993223 0.991161 0.986951 1.0012 0.999579 1.0007 0.998654 0.999751 0.99781 0.999903 0.998031 0.999579 0.995612 0.998654 0.996183 0.99781 0.995603 0.998031 0.997009 1.0007 0.998654 0.997527 0.996362 0.999903 0.998031 0.996706 0.994897 0.998654 0.996183 0.996362 0.994624 0.998031 0.997009 0.994897 0.995062 0.999751 0.99781 0.999903 0.998031 0.998524 0.99937 0.999417 0.999318 0.99781 0.995603 0.998031 0.997009 0.99937 0.996009 0.999318 0.996482 0.999903 0.998031 0.996706 0.994897 0.999417 0.999318 0.996012 0.99626 0.998031 0.997009 0.994897 0.995062 0.999318 0.996482 0.99626 0.99596 1.00017 0.999564 1.00391 1.00129 0.998807 0.996949 1.00123 0.998897 0.999564 0.997303 1.00129 0.996933 0.996949 0.993913 0.998897 0.994204 1.00391 1.00129 1.00503 1.00056 1.00123 0.998897 1.00015 0.996848 1.00129 0.996933 1.00056 0.995328 0.998897 0.994204 0.996848 0.991994 0.998807 0.996949 1.00123 0.998897 0.994686 0.993869 0.994962 0.993603 0.996949 0.993913 0.998897 0.994204 0.993869 0.993882 0.993603 0.993389 1.00123 0.998897 1.00015 0.996848 0.994962 0.993603 0.993117 0.991208 0.998897 0.994204 0.996848 0.991994 0.993603 0.993389 0.991208 0.993486 0.997777 0.998985 0.99358 0.992887 0.996757 0.996374 0.994645 0.99384 0.998985 0.995725 0.992887 0.992936 0.996374 0.997391 0.99384 0.995254 0.99358 0.992887 0.993532 0.991234 0.994645 0.99384 0.992704 0.995749 0.992887 0.992936 0.991234 0.988783 0.99384 0.995254 0.995749 0.996091 0.996757 0.996374 0.994645 0.99384 0.997303 0.993913 0.996933 0.994204 0.996374 0.997391 0.99384 0.995254 0.993913 0.993882 0.994204 0.993389 0.994645 0.99384 0.992704 0.995749 0.996933 0.994204 0.995328 0.991994 0.99384 0.995254 0.995749 0.996091 0.994204 0.993389 0.991994 0.993486 0.99748 0.997099 0.994495 0.992753 0.998226 0.997194 0.992902 0.994275 0.997099 0.994686 0.992753 0.994962 0.997194 0.993869 0.994275 0.993603 0.994495 0.992753 0.990685 0.990083 0.992902 0.994275 0.992106 0.991846 0.992753 0.994962 0.990083 0.993117 0.994275 0.993603 0.991846 0.991208 0.998226 0.997194 0.992902 0.994275 0.995725 0.997391 0.992936 0.995254 0.997194 0.993869 0.994275 0.993603 0.997391 0.993882 0.995254 0.993389 0.992902 0.994275 0.992106 0.991846 0.992936 0.995254 0.988783 0.996091 0.994275 0.993603 0.991846 0.991208 0.995254 0.993389 0.996091 0.993486 0.998524 1.00078 1.00175 0.999904 1.00159 0.99936 1.0015 0.999438 1.00078 1.00017 0.999904 0.998807 0.99936 0.999564 0.999438 0.996949 1.00175 0.999904 0.99748 0.997099 1.0015 0.999438 0.998226 0.997194 0.999904 0.998807 0.997099 0.994686 0.999438 0.996949 0.997194 0.993869 1.00159 0.99936 1.0015 0.999438 0.997777 0.996757 0.998985 0.996374 0.99936 0.999564 0.999438 0.996949 0.996757 0.997303 0.996374 0.993913 1.0015 0.999438 0.998226 0.997194 0.998985 0.996374 0.995725 0.997391 0.999438 0.996949 0.997194 0.993869 0.996374 0.993913 0.997391 0.993882 0.997107 0