# vtk DataFile Version 3.0
#This file was generated by the deal.II library on 2025/4/16 at 17:55:34
ASCII
DATASET UNSTRUCTURED_GRID

POINTS 8192 double
-0.353088 7.13714e-05 -0.35429
-0.46151 -0.00163667 -0.298568
-0.52836 -0.0100306 -0.529561
-0.638892 -0.00986277 -0.424162
-0.413903 -0.117269 -0.300275
-0.507419 -0.105734 -0.258603
-0.590856 -0.165785 -0.4323
-0.676696 -0.144471 -0.356449
-0.46151 -0.00163667 -0.298568
-0.568477 6.05036e-05 -0.23625
-0.638892 -0.00986277 -0.424162
-0.743304 -0.0056409 -0.312006
-0.507419 -0.105734 -0.258603
-0.599934 -0.0913357 -0.212601
-0.676696 -0.144471 -0.356449
-0.758819 -0.120624 -0.277027
-0.52836 -0.0100306 -0.529561
-0.638892 -0.00986277 -0.424162
-0.706662 5.86827e-05 -0.707816
-0.821141 -0.00281729 -0.548745
-0.590856 -0.165785 -0.4323
-0.676696 -0.144471 -0.356449
-0.773416 -0.202619 -0.563977
-0.851279 -0.174007 -0.451963
-0.638892 -0.00986277 -0.424162
-0.743304 -0.0056409 -0.312006
-0.821141 -0.00281729 -0.548745
-0.923315 5.34675e-05 -0.383181
-0.676696 -0.144471 -0.356449
-0.758819 -0.120624 -0.277027
-0.851279 -0.174007 -0.451963
-0.922277 -0.142799 -0.33756
-0.413903 -0.117269 -0.300275
-0.507419 -0.105734 -0.258603
-0.590856 -0.165785 -0.4323
-0.676696 -0.144471 -0.356449
-0.470888 -0.235522 -0.236262
-0.550197 -0.211042 -0.211782
-0.644678 -0.319935 -0.320675
-0.708293 -0.278958 -0.279698
-0.507419 -0.105734 -0.258603
-0.599934 -0.0913357 -0.212601
-0.676696 -0.144471 -0.356449
-0.758819 -0.120624 -0.277027
-0.550197 -0.211042 -0.211782
-0.628826 -0.184136 -0.184734
-0.708293 -0.278958 -0.279698
-0.769801 -0.236472 -0.23707
-0.590856 -0.165785 -0.4323
-0.676696 -0.144471 -0.356449
-0.773416 -0.202619 -0.563977
-0.851279 -0.174007 -0.451963
-0.644678 -0.319935 -0.320675
-0.708293 -0.278958 -0.279698
-0.82452 -0.39939 -0.400079
-0.8711 -0.342642 -0.343331
-0.676696 -0.144471 -0.356449
-0.758819 -0.120624 -0.277027
-0.851279 -0.174007 -0.451963
-0.922277 -0.142799 -0.33756
-0.708293 -0.278958 -0.279698
-0.769801 -0.236472 -0.23707
-0.8711 -0.342642 -0.343331
-0.914302 -0.285284 -0.285835
-0.568477 6.05036e-05 -0.23625
-0.536257 -0.0023809 -0.116209
-0.743304 -0.0056409 -0.312006
-0.748739 -0.0103933 -0.159322
-0.599934 -0.0913357 -0.212601
-0.569778 -0.105834 -0.106255
-0.758819 -0.120624 -0.277027
-0.756971 -0.142322 -0.142743
-0.536257 -0.0023809 -0.116209
-0.499353 7.20722e-05 -0.00015059
-0.748739 -0.0103933 -0.159322
-0.745038 -0.00986922 -0.0100919
-0.569778 -0.105834 -0.106255
-0.536234 -0.115779 -0.00259376
-0.756971 -0.142322 -0.142743
-0.748716 -0.158892 -0.0106062
-0.743304 -0.0056409 -0.312006
-0.748739 -0.0103933 -0.159322
-0.923315 5.34675e-05 -0.383181
-0.968735 -0.00326858 -0.19095
-0.758819 -0.120624 -0.277027
-0.756971 -0.142322 -0.142743
-0.922277 -0.142799 -0.33756
-0.950574 -0.16985 -0.170222
-0.748739 -0.0103933 -0.159322
-0.745038 -0.00986922 -0.0100919
-0.968735 -0.00326858 -0.19095
-0.999274 7.53768e-05 -0.000129919
-0.756971 -0.142322 -0.142743
-0.748716 -0.158892 -0.0106062
-0.950574 -0.16985 -0.170222
-0.968675 -0.190564 -0.0034597
-0.599934 -0.0913357 -0.212601
-0.569778 -0.105834 -0.106255
-0.758819 -0.120624 -0.277027
-0.756971 -0.142322 -0.142743
-0.628826 -0.184136 -0.184734
-0.59986 -0.211895 -0.0916968
-0.769801 -0.236472 -0.23707
-0.758745 -0.276321 -0.120986
-0.569778 -0.105834 -0.106255
-0.536234 -0.115779 -0.00259376
-0.756971 -0.142322 -0.142743
-0.748716 -0.158892 -0.0106062
-0.59986 -0.211895 -0.0916968
-0.56839 -0.235517 -0.000125741
-0.758745 -0.276321 -0.120986
-0.743217 -0.311272 -0.00582714
-0.758819 -0.120624 -0.277027
-0.756971 -0.142322 -0.142743
-0.922277 -0.142799 -0.33756
-0.950574 -0.16985 -0.170222
-0.769801 -0.236472 -0.23707
-0.758745 -0.276321 -0.120986
-0.914302 -0.285284 -0.285835
-0.922172 -0.336894 -0.143114
-0.756971 -0.142322 -0.142743
-0.748716 -0.158892 -0.0106062
-0.950574 -0.16985 -0.170222
-0.968675 -0.190564 -0.0034597
-0.758745 -0.276321 -0.120986
-0.743217 -0.311272 -0.00582714
-0.922172 -0.336894 -0.143114
-0.923172 -0.382481 -0.000108446
-0.470888 -0.235522 -0.236262
-0.550197 -0.211042 -0.211782
-0.644678 -0.319935 -0.320675
-0.708293 -0.278958 -0.279698
-0.413826 -0.299255 -0.117703
-0.507343 -0.257583 -0.106167
-0.590779 -0.43128 -0.166218
-0.67662 -0.355429 -0.144904
-0.550197 -0.211042 -0.211782
-0.628826 -0.184136 -0.184734
-0.708293 -0.278958 -0.279698
-0.769801 -0.236472 -0.23707
-0.507343 -0.257583 -0.106167
-0.59986 -0.211895 -0.0916968
-0.67662 -0.355429 -0.144904
-0.758745 -0.276321 -0.120986
-0.644678 -0.319935 -0.320675
-0.708293 -0.278958 -0.279698
-0.82452 -0.39939 -0.400079
-0.8711 -0.342642 -0.343331
-0.590779 -0.43128 -0.166218
-0.67662 -0.355429 -0.144904
-0.773283 -0.562966 -0.202993
-0.851146 -0.450952 -0.174381
-0.708293 -0.278958 -0.279698
-0.769801 -0.236472 -0.23707
-0.8711 -0.342642 -0.343331
-0.914302 -0.285284 -0.285835
-0.67662 -0.355429 -0.144904
-0.758745 -0.276321 -0.120986
-0.851146 -0.450952 -0.174381
-0.922172 -0.336894 -0.143114
-0.413826 -0.299255 -0.117703
-0.507343 -0.257583 -0.106167
-0.590779 -0.43128 -0.166218
-0.67662 -0.355429 -0.144904
-0.353026 -0.353189 -0.00014341
-0.461448 -0.297467 -0.00185146
-0.528297 -0.52846 -0.0102454
-0.63883 -0.423061 -0.0100776
-0.507343 -0.257583 -0.106167
-0.59986 -0.211895 -0.0916968
-0.67662 -0.355429 -0.144904
-0.758745 -0.276321 -0.120986
-0.461448 -0.297467 -0.00185146
-0.56839 -0.235517 -0.000125741
-0.63883 -0.423061 -0.0100776
-0.743217 -0.311272 -0.00582714
-0.590779 -0.43128 -0.166218
-0.67662 -0.355429 -0.144904
-0.773283 -0.562966 -0.202993
-0.851146 -0.450952 -0.174381
-0.528297 -0.52846 -0.0102454
-0.63883 -0.423061 -0.0100776
-0.706519 -0.706695 -0.000125529
-0.820997 -0.547623 -0.0030015
-0.67662 -0.355429 -0.144904
-0.758745 -0.276321 -0.120986
-0.851146 -0.450952 -0.174381
-0.922172 -0.336894 -0.143114
-0.63883 -0.423061 -0.0100776
-0.743217 -0.311272 -0.00582714
-0.820997 -0.547623 -0.0030015
-0.923172 -0.382481 -0.000108446
-0.353088 7.13714e-05 -0.35429
-0.46151 -0.00163667 -0.298568
-0.413903 -0.117269 -0.300275
-0.507419 -0.105734 -0.258603
-0.173724 -0.0144124 -0.174684
-0.353285 -0.0140846 -0.15294
-0.294 -0.154786 -0.155425
-0.431595 -0.134054 -0.134692
-0.46151 -0.00163667 -0.298568
-0.568477 6.05036e-05 -0.23625
-0.507419 -0.105734 -0.258603
-0.599934 -0.0913357 -0.212601
-0.353285 -0.0140846 -0.15294
-0.536257 -0.0023809 -0.116209
-0.431595 -0.134054 -0.134692
-0.569778 -0.105834 -0.106255
-0.413903 -0.117269 -0.300275
-0.507419 -0.105734 -0.258603
-0.470888 -0.235522 -0.236262
-0.550197 -0.211042 -0.211782
-0.294 -0.154786 -0.155425
-0.431595 -0.134054 -0.134692
-0.413826 -0.299255 -0.117703
-0.507343 -0.257583 -0.106167
-0.507419 -0.105734 -0.258603
-0.599934 -0.0913357 -0.212601
-0.550197 -0.211042 -0.211782
-0.628826 -0.184136 -0.184734
-0.431595 -0.134054 -0.134692
-0.569778 -0.105834 -0.106255
-0.507343 -0.257583 -0.106167
-0.59986 -0.211895 -0.0916968
-0.173724 -0.0144124 -0.174684
-0.353285 -0.0140846 -0.15294
-0.294 -0.154786 -0.155425
-0.431595 -0.134054 -0.134692
0.0003166 0.000107191 -0.000227624
-0.243479 -0.0125203 -0.0128551
-0.173817 -0.174027 -0.0147275
-0.353378 -0.152282 -0.0143997
-0.353285 -0.0140846 -0.15294
-0.536257 -0.0023809 -0.116209
-0.431595 -0.134054 -0.134692
-0.569778 -0.105834 -0.106255
-0.243479 -0.0125203 -0.0128551
-0.499353 7.20722e-05 -0.00015059
-0.353378 -0.152282 -0.0143997
-0.536234 -0.115779 -0.00259376
-0.294 -0.154786 -0.155425
-0.431595 -0.134054 -0.134692
-0.413826 -0.299255 -0.117703
-0.507343 -0.257583 -0.106167
-0.173817 -0.174027 -0.0147275
-0.353378 -0.152282 -0.0143997
-0.353026 -0.353189 -0.00014341
-0.461448 -0.297467 -0.00185146
-0.431595 -0.134054 -0.134692
-0.569778 -0.105834 -0.106255
-0.507343 -0.257583 -0.106167
-0.59986 -0.211895 -0.0916968
-0.353378 -0.152282 -0.0143997
-0.536234 -0.115779 -0.00259376
-0.461448 -0.297467 -0.00185146
-0.56839 -0.235517 -0.000125741
0.353197 -2.80418e-05 0.35424
0.410826 0.117633 0.286005
0.537062 -0.0282059 0.538105
0.596406 0.13723 0.403043
0.459636 -0.00427917 0.291775
0.503224 0.10237 0.243707
0.641297 -0.030144 0.418478
0.677902 0.118451 0.329859
0.410826 0.117633 0.286005
0.470983 0.235563 0.236206
0.596406 0.13723 0.403043
0.660625 0.312127 0.312741
0.503224 0.10237 0.243707
0.548157 0.20834 0.20898
0.677902 0.118451 0.329859
0.717191 0.269573 0.270197
0.537062 -0.0282059 0.538105
0.596406 0.13723 0.403043
0.706784 -1.82328e-05 0.707768
0.757482 0.193299 0.520352
0.641297 -0.030144 0.418478
0.677902 0.118451 0.329859
0.807549 -0.0161657 0.545156
0.83126 0.161683 0.4224
0.596406 0.13723 0.403043
0.660625 0.312127 0.312741
0.757482 0.193299 0.520352
0.816101 0.408115 0.408647
0.677902 0.118451 0.329859
0.717191 0.269573 0.270197
0.83126 0.161683 0.4224
0.859511 0.346604 0.347154
0.459636 -0.00427917 0.291775
0.503224 0.10237 0.243707
0.641297 -0.030144 0.418478
0.677902 0.118451 0.329859
0.568572 -2.76386e-05 0.236202
0.598034 0.0930675 0.206373
0.753443 -0.0138451 0.304684
0.766163 0.108312 0.259356
0.503224 0.10237 0.243707
0.548157 0.20834 0.20898
0.677902 0.118451 0.329859
0.717191 0.269573 0.270197
0.598034 0.0930675 0.206373
0.62806 0.185037 0.185543
0.766163 0.108312 0.259356
0.780372 0.229415 0.22992
0.641297 -0.030144 0.418478
0.677902 0.118451 0.329859
0.807549 -0.0161657 0.545156
0.83126 0.161683 0.4224
0.753443 -0.0138451 0.304684
0.766163 0.108312 0.259356
0.923416 -2.36461e-05 0.383126
0.917061 0.143646 0.32321
0.677902 0.118451 0.329859
0.717191 0.269573 0.270197
0.83126 0.161683 0.4224
0.859511 0.346604 0.347154
0.766163 0.108312 0.259356
0.780372 0.229415 0.22992
0.917061 0.143646 0.32321
0.913455 0.286815 0.287255
0.470983 0.235563 0.236206
0.410723 0.28508 0.117967
0.660625 0.312127 0.312741
0.596304 0.402136 0.137552
0.548157 0.20834 0.20898
0.503121 0.242783 0.102704
0.717191 0.269573 0.270197
0.677799 0.328945 0.118777
0.410723 0.28508 0.117967
0.353093 0.353232 7.33518e-05
0.596304 0.402136 0.137552
0.536959 0.537097 -0.0281045
0.503121 0.242783 0.102704
[...]
POINT_DATA 8192
SCALARS D_0 double 1
LOOKUP_TABLE default
0.000117027 0.000102709 0.000135656 0.000111598 0.000103085 9.57186e-05 0.000114451 0.00010301 0.000102709 9.31356e-05 0.000111598 9.92053e-05 9.57186e-05 9.11317e-05 0.00010301 9.70104e-05 0.000135656 0.000111598 0.000113257 9.25734e-05 0.000114451 0.00010301 9.42429e-05 8.74917e-05 0.000111598 9.92053e-05 9.25734e-05 8.72896e-05 0.00010301 9.70104e-05 8.74917e-05 8.86735e-05 0.000103085 9.57186e-05 0.000114451 0.00010301 9.17276e-05 9.00216e-05 9.83065e-05 9.65423e-05 9.57186e-05 9.11317e-05 0.00010301 9.70104e-05 9.00216e-05 8.94813e-05 9.65423e-05 9.50687e-05 0.000114451 0.00010301 9.42429e-05 8.74917e-05 9.83065e-05 9.65423e-05 8.66526e-05 8.72391e-05 0.00010301 9.70104e-05 8.74917e-05 8.86735e-05 9.65423e-05 9.50687e-05 8.72391e-05 8.95753e-05 9.31356e-05 8.11672e-05 9.92053e-05 9.35665e-05 9.11317e-05 8.21444e-05 9.70104e-05 9.34297e-05 8.11672e-05 7.2489e-05 9.35665e-05 8.96129e-05 8.21444e-05 7.5613e-05 9.34297e-05 9.10641e-05 9.92053e-05 9.35665e-05 8.72896e-05 9.40686e-05 9.70104e-05 9.34297e-05 8.86735e-05 9.40461e-05 9.35665e-05 8.96129e-05 9.40686e-05 9.832e-05 9.34297e-05 9.10641e-05 9.40461e-05 9.68878e-05 9.11317e-05 8.21444e-05 9.70104e-05 9.34297e-05 8.94813e-05 8.34592e-05 9.50687e-05 9.37368e-05 8.21444e-05 7.5613e-05 9.34297e-05 9.10641e-05 8.34592e-05 7.92129e-05 9.37368e-05 9.29216e-05 9.70104e-05 9.34297e-05 8.86735e-05 9.40461e-05 9.50687e-05 9.37368e-05 8.95753e-05 9.42309e-05 9.34297e-05 9.10641e-05 9.40461e-05 9.68878e-05 9.37368e-05 9.29216e-05 9.42309e-05 9.55648e-05 9.17276e-05 9.00216e-05 9.83065e-05 9.65423e-05 7.89452e-05 8.0596e-05 9.19416e-05 9.26032e-05 9.00216e-05 8.94813e-05 9.65423e-05 9.50687e-05 8.0596e-05 8.34592e-05 9.26032e-05 9.37368e-05 9.83065e-05 9.65423e-05 8.66526e-05 8.72391e-05 9.19416e-05 9.26032e-05 9.0834e-05 9.20105e-05 9.65423e-05 9.50687e-05 8.72391e-05 8.95753e-05 9.26032e-05 9.37368e-05 9.20105e-05 9.42309e-05 7.89452e-05 8.0596e-05 9.19416e-05 9.26032e-05 7.20738e-05 7.52862e-05 8.90033e-05 8.98916e-05 8.0596e-05 8.34592e-05 9.26032e-05 9.37368e-05 7.52862e-05 7.92129e-05 8.98916e-05 9.29216e-05 9.19416e-05 9.26032e-05 9.0834e-05 9.20105e-05 8.90033e-05 8.98916e-05 9.81691e-05 9.54854e-05 9.26032e-05 9.37368e-05 9.20105e-05 9.42309e-05 8.98916e-05 9.29216e-05 9.54854e-05 9.55648e-05 0.000117027 0.000102709 0.000103085 9.57186e-05 6.75462e-05 7.27079e-05 7.1298e-05 7.63976e-05 0.000102709 9.31356e-05 9.57186e-05 9.11317e-05 7.27079e-05 8.11672e-05 7.63976e-05 8.21444e-05 0.000103085 9.57186e-05 9.17276e-05 9.00216e-05 7.1298e-05 7.63976e-05 7.89452e-05 8.0596e-05 9.57186e-05 9.11317e-05 9.00216e-05 8.94813e-05 7.63976e-05 8.21444e-05 8.0596e-05 8.34592e-05 6.75462e-05 7.27079e-05 7.1298e-05 7.63976e-05 6.10914e-06 4.0941e-05 4.14368e-05 5.88264e-05 7.27079e-05 8.11672e-05 7.63976e-05 8.21444e-05 4.0941e-05 7.2489e-05 5.88264e-05 7.5613e-05 7.1298e-05 7.63976e-05 7.89452e-05 8.0596e-05 4.14368e-05 5.88264e-05 7.20738e-05 7.52862e-05 7.63976e-05 8.21444e-05 8.0596e-05 8.34592e-05 5.88264e-05 7.5613e-05 7.52862e-05 7.92129e-05 0.000108134 9.0326e-05 0.000125303 9.94645e-05 9.18519e-05 8.30177e-05 9.918e-05 8.87895e-05 9.0326e-05 7.986e-05 9.94645e-05 8.23429e-05 8.30177e-05 7.78263e-05 8.87895e-05 8.18385e-05 0.000125303 9.94645e-05 0.000106163 7.98821e-05 9.918e-05 8.87895e-05 8.17476e-05 7.32842e-05 9.94645e-05 8.23429e-05 7.98821e-05 6.82352e-05 8.87895e-05 8.18385e-05 7.32842e-05 7.18562e-05 9.18519e-05 8.30177e-05 9.918e-05 8.87895e-05 8.23878e-05 7.94876e-05 8.58024e-05 8.33185e-05 8.30177e-05 7.78263e-05 8.87895e-05 8.18385e-05 7.94876e-05 7.78847e-05 8.33185e-05 8.1681e-05 9.918e-05 8.87895e-05 8.17476e-05 7.32842e-05 8.58024e-05 8.33185e-05 7.2335e-05 7.47018e-05 8.87895e-05 8.18385e-05 7.32842e-05 7.18562e-05 8.33185e-05 8.1681e-05 7.47018e-05 7.50139e-05 7.986e-05 6.7006e-05 8.23429e-05 7.74063e-05 7.78263e-05 6.92492e-05 8.18385e-05 8.01374e-05 6.7006e-05 6.32516e-05 7.74063e-05 7.97853e-05 6.92492e-05 6.61151e-05 8.01374e-05 8.20277e-05 8.23429e-05 7.74063e-05 6.82352e-05 7.66166e-05 8.18385e-05 8.01374e-05 7.18562e-05 8.08107e-05 7.74063e-05 7.97853e-05 7.66166e-05 8.63e-05 8.01374e-05 8.20277e-05 8.08107e-05 8.68019e-05 7.78263e-05 6.92492e-05 8.18385e-05 8.01374e-05 7.78847e-05 7.3417e-05 8.1681e-05 8.33418e-05 6.92492e-05 6.61151e-05 8.01374e-05 8.20277e-05 7.3417e-05 7.12407e-05 8.33418e-05 8.60067e-05 8.18385e-05 8.01374e-05 7.18562e-05 8.08107e-05 8.1681e-05 8.33418e-05 7.50139e-05 8.34079e-05 8.01374e-05 8.20277e-05 8.08107e-05 8.68019e-05 8.33418e-05 8.60067e-05 8.34079e-05 8.96114e-05 8.23878e-05 7.94876e-05 8.58024e-05 8.33185e-05 7.15823e-05 7.17101e-05 8.22586e-05 8.18251e-05 7.94876e-05 7.78847e-05 8.33185e-05 8.1681e-05 7.17101e-05 7.3417e-05 8.18251e-05 8.33418e-05 8.58024e-05 8.33185e-05 7.2335e-05 7.47018e-05 8.22586e-05 8.18251e-05 8.19054e-05 8.30143e-05 8.33185e-05 8.1681e-05 7.47018e-05 7.50139e-05 8.18251e-05 8.33418e-05 8.30143e-05 8.34079e-05 7.15823e-05 7.17101e-05 8.22586e-05 8.18251e-05 6.4441e-05 6.73753e-05 8.22386e-05 8.39843e-05 7.17101e-05 7.3417e-05 8.18251e-05 8.33418e-05 6.73753e-05 7.12407e-05 8.39843e-05 8.60067e-05 8.22586e-05 8.18251e-05 8.19054e-05 8.30143e-05 8.22386e-05 8.39843e-05 8.90652e-05 8.95331e-05 8.18251e-05 8.33418e-05 8.30143e-05 8.34079e-05 8.39843e-05 8.60067e-05 8.95331e-05 8.96114e-05 0.000108134 9.0326e-05 9.18519e-05 8.30177e-05 6.18596e-05 5.6184e-05 6.16226e-05 6.29345e-05 9.0326e-05 7.986e-05 8.30177e-05 7.78263e-05 5.6184e-05 6.7006e-05 6.29345e-05 6.92492e-05 9.18519e-05 8.30177e-05 8.23878e-05 7.94876e-05 6.16226e-05 6.29345e-05 7.15823e-05 7.17101e-05 8.30177e-05 7.78263e-05 7.94876e-05 7.78847e-05 6.29345e-05 6.92492e-05 7.17101e-05 7.3417e-05 6.18596e-05 5.6184e-05 6.16226e-05 6.29345e-05 6.10914e-06 3.45852e-05 3.38639e-05 5.0678e-05 5.6184e-05 6.7006e-05 6.29345e-05 6.92492e-05 3.45852e-05 6.32516e-05 5.0678e-05 6.61151e-05 6.16226e-05 6.29345e-05 7.15823e-05 7.17101e-05 3.38639e-05 5.0678e-05 6.4441e-05 6.73753e-05 6.29345e-05 6.92492e-05 7.17101e-05 7.3417e-05 5.0678e-05 6.61151e-05 6.73753e-05 7.12407e-05 0.000145329 0.000150325 0.000179742 0.00017596 0.000150782 0.000154953 0.000175179 0.000172642 0.000150325 0.000152326 0.00017596 0.000164782 0.000154953 0.000155765 0.000172642 0.000165656 0.000179742 0.00017596 0.000180907 0.000177783 0.000175179 0.000172642 0.000176761 0.000174665 0.00017596 0.000164782 0.000177783 0.000163539 0.000172642 0.000165656 0.000174665 0.000160538 0.000150782 0.000154953 0.000175179 0.000172642 0.000151247 0.000155364 0.000164202 0.000166227 0.000154953 0.000155765 0.000172642 0.000165656 0.000155364 0.000156199 0.000166227 0.000162284 0.000175179 0.000172642 0.000176761 0.000174665 0.000164202 0.000166227 0.000160719 0.000161271 0.000172642 0.000165656 0.000174665 0.000160538 0.000166227 0.000162284 0.000161271 0.0001568 0.000152326 0.000132809 0.000164782 0.000148355 0.000155765 0.000139862 0.000165656 0.000152858 0.000132809 0.000110212 0.000148355 0.00012668 0.000139862 0.000120622 0.000152858 0.000136644 0.000164782 0.000148355 0.000163539 0.000134995 0.000165656 0.000152858 0.000160538 0.00014195 0.000148355 0.00012668 0.000134995 0.000108389 0.000152858 0.000136644 0.00014195 0.000120853 0.000155765 0.000139862 0.000165656 0.000152858 0.000156199 0.000144183 0.000162284 0.000152307 0.000139862 0.000120622 0.000152858 0.000136644 0.000144183 0.000130058 0.000152307 0.000141377 0.000165656 0.000152858 0.000160538 0.00014195 0.000162284 0.000152307 0.0001568 0.000143399 0.000152858 0.000136644 0.00014195 0.000120853 0.000152307 0.000141377 0.000143399 0.000126215 0.000151247 0.000155364 0.000164202 0.000166227 0.000130406 0.000138056 0.000147604 0.000153083 0.000155364 0.000156199 0.000166227 0.000162284 0.000138056 0.000144183 0.000153083 0.000152307 0.000164202 0.000166227 0.000160719 0.000161271 0.000147604 0.000153083 0.00013517 0.00014221 0.000166227 0.000162284 0.000161271 0.0001568 0.000153083 0.000152307 0.00014221 0.000143399 0.000130406 0.000138056 0.000147604 0.000153083 0.00010727 0.000117668 0.00012425 0.000134945 0.000138056 0.000144183 0.000153083 0.000152307 0.000117668 0.000130058 0.000134945 0.000141377 0.000147604 0.000153083 0.00013517 0.00014221 0.00012425 0.000134945 0.000104531 0.000118219 0.000153083 0.000152307 0.00014221 0.000143399 0.000134945 0.000141377 0.000118219 0.000126215 0.000145329 0.000150325 0.000150782 0.000154953 8.19378e-05 0.00010927 0.000109714 0.000125773 0.000150325 0.000152326 0.000154953 0.000155765 0.00010927 0.000132809 0.000125773 0.000139862 0.000150782 0.000154953 0.000151247 0.000155364 0.000109714 0.000125773 0.000130406 0.000138056 0.000154953 0.000155765 0.000155364 0.000156199 0.000125773 0.000139862 0.000138056 0.000144183 8.19378e-05 0.00010927 0.000109714 0.000125773 6.10914e-06 6.02342e-05 6.1772e-05 9.10998e-05 0.00010927 0.000132809 0.000125773 0.000139862 6.02342e-05 0.000110212 9.10998e-05 0.000120622 0.000109714 0.000125773 0.000130406 0.000138056 6.1772e-05 9.10998e-05 0.00010727 0.000117668 0.000125773 0.000139862 0.000138056 0.000144183 9.10998e-05 0.000120622 0.000117668 0.000130058 0.000155271 0.000161481 0.000195317 0.000189824 0.000161204 0.000166276 0.00018968 0.000187423 0.000161481 0.000161715 0.000189824 0.000175873 0.000166276 0.000166583 0.000187423 0.000177564 0.000195317 0.000189824 0.000198484 0.000195165 0.00018968 0.000187423 0.000190945 0.000188567 0.000189824 0.000175873 0.000195165 0.000172836 0.000187423 0.000177564 0.000188567 0.000174116 0.000161204 0.000166276 0.00018968 0.000187423 0.000160931 0.00016619 0.000176208 0.000179234 0.000166276 0.000166583 0.000187423 0.000177564 0.00016619 0.000167247 0.000179234 0.0001753 0.00018968 0.000187423 0.000190945 0.000188567 0.000176208 0.000179234 0.000172143 0.000176859 0.000187423 0.000177564 0.000188567 0.000174116 0.000179234 0.0001753 0.000176859 0.000167783 0.000161715 0.000139886 0.000175873 0.000157572 0.000166583 0.000148786 0.000177564 0.000164204 0.000139886 0.0001153 0.000157572 0.000134633 0.000148786 0.00012825 0.000164204 0.000147113 0.000175873 0.000157572 0.000172836 0.000142587 0.000177564 0.000164204 0.000174116 0.000152937 0.000157572 0.000134633 0.000142587 0.000115448 0.000164204 0.000147113 0.000152937 0.000130624 0.000166583 0.000148786 0.000177564 0.000164204 0.000167247 0.000153457 0.0001753 0.000165218 0.000148786 0.00012825 0.000164204 0.000147113 0.000153457 0.000137528 0.000165218 0.000153459 0.000177564 0.000164204 0.000174116 0.000152937 0.0001753 0.000165218 0.000167783 0.000155778 0.000164204 0.000147113 0.000152937 0.000130624 0.000165218 0.000153459 0.000155778 0.000138304 0.000160931 0.00016619 0.000176208 0.000179234 0.000138623 0.000147908 0.000157064 0.000165981 0.00016619 0.000167247 0.000179234 0.0001753 0.000147908 0.000153457 0.000165981 0.000165218 0.000176208 0.000179234 0.000172143 0.000176859 0.000157064 0.000165981 0.000143588 0.000156753 0.000179234 0.0001753 0.000176859 0.000167783 0.000165981 0.000165218 0.000156753 0.000155778 0.000138623 0.000147908 0.000157064 0.000165981 0.000113739 0.00012708 0.000135473 0.00014854 0.000147908 0.000153457 0.000165981 0.000165218 0.00012708 0.000137528 0.00014854 0.000153459 0.000157064 0.000165981 0.000143588 0.000156753 0.000135473 0.00014854 0.000112896 0.000134763 0.000165981 0.000165218 0.000156753 0.000155778 0.00014854 0.000153459 0.000134763 0.000138304 0.000155271 0.000161481 0.000161204 0.000166276 8.44053e-05 0.000115913 0.000116299 0.000135419 0.000161481 0.000161715 0.000166276 0.000166583 0.000115913 0.000139886 0.000135419 0.000148786 0.000161204 0.000166276 0.000160931 0.00016619 0.000116299 0.000135419 0.000138623 0.000147908 0.000166276 0.000166583 0.00016619 0.000167247 0.000135419 0.000148786 0.000147908 0.000153457 8.44053e-05 0.000115913 0.000116299 0.000135419 6.10914e-06 6.56919e-05 6.67772e-05 9.99532e-05 0.000115913 0.000139886 0.000135419 0.000148786 6.56919e-05 0.0001153 9.99532e-05 0.00012825 0.000116299 0.000135419 0.000138623 0.000147908 6.67772e-05 9.99532e-05 0.000113739 0.00012708 0.000135419 0.000148786 0.000147908 0.000153457 9.99532e-05 0.00012825 0.00012708 0.000137528 0.000110632 9.57937e-05 0.000127065 0.000106809 9.68752e-05 8.9368e-05 0.000105073 9.68681e-05 9.57937e-05 8.52866e-05 0.000106809 9.16071e-05 8.9368e-05 8.40045e-05 9.68681e-05 9.03248e-05 0.000127065 0.000106809 0.000110187 8.88037e-05 0.000105073 9.68681e-05 8.88838e-05 8.26177e-05 0.000106809 9.16071e-05 8.88037e-05 7.87984e-05 9.68681e-05 9.03248e-05 8.26177e-05 8.07153e-05 9.68752e-05 8.9368e-05 0.000105073 9.68681e-05 8.81958e-05 8.59412e-05 9.37688e-05 9.20219e-05 8.9368e-05 8.40045e-05 9.68681e-05 9.03248e-05 8.59412e-05 8.43605e-05 9.20219e-05 8.97743e-05 0.000105073 9.68681e-05 8.88838e-05 8.26177e-05 9.37688e-05 9.20219e-05 8.25762e-05 8.41728e-05 9.68681e-05 9.03248e-05 8.26177e-05 8.07153e-05 9.20219e-05 8.97743e-05 8.41728e-05 8.41397e-05 8.52866e-05 7.11993e-05 9.16071e-05 8.34492e-05 8.40045e-05 7.36185e-05 9.03248e-05 8.58754e-05 7.11993e-05 6.55887e-05 8.34492e-05 8.17661e-05 7.36185e-05 6.88324e-05 8.58754e-05 8.39077e-05 9.16071e-05 8.34492e-05 7.87984e-05 8.3026e-05 9.03248e-05 8.58754e-05 8.07153e-05 8.65311e-05 8.34492e-05 8.17661e-05 8.3026e-05 8.95684e-05 8.58754e-05 8.39077e-05 8.65311e-05 9.00314e-05 8.40045e-05 7.36185e-05 9.03248e-05 8.58754e-05 8.43605e-05 7.82284e-05 8.97743e-05 8.93837e-05 7.36185e-05 6.88324e-05 8.58754e-05 8.39077e-05 7.82284e-05 7.43235e-05 8.93837e-05 8.84442e-05 9.03248e-05 8.58754e-05 8.07153e-05 8.65311e-05 8.97743e-05 8.93837e-05 8.41397e-05 8.91655e-05 8.58754e-05 8.39077e-05 8.65311e-05 9.00314e-05 8.93837e-05 8.84442e-05 8.91655e-05 9.3021e-05 8.81958e-05 8.59412e-05 9.37688e-05 9.20219e-05 7.69624e-05 7.72672e-05 8.91532e-05 8.88792e-05 8.59412e-05 8.43605e-05 9.20219e-05 8.97743e-05 7.72672e-05 7.82284e-05 8.88792e-05 8.93837e-05 9.37688e-05 9.20219e-05 8.25762e-05 8.41728e-05 8.91532e-05 8.88792e-05 8.95498e-05 9.17498e-05 9.20219e-05 8.97743e-05 8.41728e-05 8.41397e-05 8.88792e-05 8.93837e-05 9.17498e-05 8.91655e-05 7.69624e-05 7.72672e-05 8.91532e-05 8.88792e-05 6.91722e-05 7.13453e-05 8.60232e-05 8.76824e-05 7.72672e-05 7.82284e-05 8.88792e-05 8.93837e-05 7.13453e-05 7.43235e-05 8.76824e-05 8.84442e-05 8.91532e-05 8.88792e-05 8.95498e-05 9.17498e-05 8.60232e-05 8.76824e-05 9.48584e-05 9.44232e-05 8.88792e-05 8.93837e-05 9.17498e-05 8.91655e-05 8.76824e-05 8.84442e-05 9.44232e-05 9.3021e-05 0.000110632 9.57937e-05 9.68752e-05 8.9368e-05 5.99177e-05 6.09006e-05 6.51135e-05 6.83097e-05 9.57937e-05 8.52866e-05 8.9368e-05 8.40045e-05 6.09006e-05 7.11993e-05 6.83097e-05 7.36185e-05 9.68752e-05 8.9368e-05 8.81958e-05 8.59412e-05 6.51135e-05 6.83097e-05 7.69624e-05 7.72672e-05 8.9368e-05 8.40045e-05 8.59412e-05 8.43605e-05 6.83097e-05 7.36185e-05 7.72672e-05 7.82284e-05 5.99177e-05 6.09006e-05 6.51135e-05 6.83097e-05 6.10914e-06 3.48207e-05 3.78902e-05 5.32392e-05 6.09006e-05 7.11993e-05 6.83097e-05 7.36185e-05 3.48207e-05 6.55887e-05 5.32392e-05 6.88324e-05 6.51135e-05 6.83097e-05 7.69624e-05 7.72672e-05 3.78902e-05 5.32392e-05 6.91722e-05 7.13453e-05 6.83097e-05 7.36185e-05 7.72672e-05 7.82284e-05 5.32392e-05 6.88324e-05 7.13453e-05 7.43235e-05 6.91852e-05 7.64133e-05 8.37277e-05 8.76643e-05 7.14024e-05 7.75349e-05 8.487e-05 8.86927e-05 7.64133e-05 9.01326e-05 8.76643e-05 9.75745e-05 7.75349e-05 8.80748e-05 8.86927e-05 9.4319e-05 8.37277e-05 8.76643e-05 8.94337e-05 8.67291e-05 8.487e-05 8.86927e-05 8.92862e-05 8.78237e-05 8.76643e-05 9.75745e-05 8.67291e-05 8.33072e-05 8.86927e-05 9.4319e-05 8.78237e-05 8.37398e-05 7.14024e-05 7.75349e-05 8.487e-05 8.86927e-05 7.51332e-05 7.9814e-05 8.90343e-05 8.95459e-05 7.75349e-05 8.80748e-05 8.86927e-05 9.4319e-05 7.9814e-05 8.68309e-05 8.95459e-05 9.20793e-05 8.487e-05 8.86927e-05 8.92862e-05 8.78237e-05 8.90343e-05 8.95459e-05 9.02238e-05 8.99973e-05 8.86927e-05 9.4319e-05 8.78237e-05 8.37398e-05 8.95459e-05 9.20793e-05 8.99973e-05 8.48894e-05 9.01326e-05 0.000102152 9.75745e-05 0.000117089 8.80748e-05 9.4048e-05 9.4319e-05 0.000103288 0.000102152 0.000116188 0.000117089 0.000138437 9.4048e-05 0.000101098 0.000103288 0.000112177 9.75745e-05 0.000117089 8.33072e-05 9.71083e-05 9.4319e-05 0.000103288 8.37398e-05 8.68559e-05 0.000117089 0.000138437 9.71083e-05 0.000117422 0.000103288 0.000112177 8.68559e-05 9.3508e-05 8.80748e-05 9.4048e-05 9.4319e-05 0.000103288 8.68309e-05 8.87693e-05 9.20793e-05 9.58174e-05 9.4048e-05 0.000101098 0.000103288 0.000112177 8.87693e-05 9.0657e-05 9.58174e-05 9.81427e-05 9.4319e-05 0.000103288 8.37398e-05 8.68559e-05 9.20793e-05 9.58174e-05 8.48894e-05 8.58013e-05 0.000103288 0.000112177 8.68559e-05 9.3508e-05 9.58174e-05 9.81427e-05 8.58013e-05 8.62654e-05 7.51332e-05 7.9814e-05 8.90343e-05 8.95459e-05 7.06171e-05 7.8287e-05 8.64618e-05 9.00205e-05 7.9814e-05 8.68309e-05 8.95459e-05 9.20793e-05 7.8287e-05 8.87693e-05 9.00205e-05 9.58174e-05 8.90343e-05 8.95459e-05 9.02238e-05 8.99973e-05 8.64618e-05 9.00205e-05 9.23977e-05 9.07364e-05 8.95459e-05 9.20793e-05 8.99973e-05 8.48894e-05 9.00205e-05 9.58174e-05 9.07364e-05 8.58013e-05 7.06171e-05 7.8287e-05 8.64618e-05 9.00205e-05 6.67378e-05 7.68639e-05 8.45289e-05 9.07347e-05 7.8287e-05 8.87693e-05 9.00205e-05 9.58174e-05 7.68639e-05 9.0657e-05 9.07347e-05 9.81427e-05 8.64618e-05 9.00205e-05 9.23977e-05 9.07364e-05 8.45289e-05 9.07347e-05 9.14109e-05 9.13141e-05 9.00205e-05 9.58174e-05 9.07364e-05 8.58013e-05 9.07347e-05 9.81427e-05 9.13141e-05 8.62654e-05 6.91852e-05 7.64133e-05 7.14024e-05 7.75349e-05 3.94457e-05 7.00382e-05 5.5024e-05 7.37638e-05 7.64133e-05 9.01326e-05 7.75349e-05 8.80748e-05 7.00382e-05 0.000102152 7.37638e-05 9.4048e-05 7.14024e-05 7.75349e-05 7.51332e-05 7.9814e-05 5.5024e-05 7.37638e-05 7.06171e-05 7.8287e-05 7.75349e-05 8.80748e-05 7.9814e-05 8.68309e-05 7.37638e-05 9.4048e-05 7.8287e-05 8.87693e-05 3.94457e-05 7.00382e-05 5.5024e-05 7.37638e-05 6.10914e-06 6.88056e-05 3.71827e-05 7.06909e-05 7.00382e-05 0.000102152 7.37638e-05 9.4048e-05 6.88056e-05 0.000116188 7.06909e-05 0.000101098 5.5024e-05 7.37638e-05 7.06171e-05 7.8287e-05 3.71827e-05 7.06909e-05 6.67378e-05 7.68639e-05 7.37638e-05 9.4048e-05 7.8287e-05 8.87693e-05 7.06909e-05 0.000101098 7.68639e-05 9.0657e-05 6.91852e-05 7.14024e-05 8.37277e-05 8.487e-05 7.30052e-05 7.47543e-05 8.46685e-05 8.62813e-05 7.14024e-05 7.51332e-05 8.487e-05 8.90343e-05 7.47543e-05 7.77563e-05 8.62813e-05 8.84309e-05 8.37277e-05 8.487e-05 8.94337e-05 8.92862e-05 8.46685e-05 8.62813e-05 8.88909e-05 8.98201e-05 8.487e-05 8.90343e-05 8.92862e-05 9.02238e-05 8.62813e-05 8.84309e-05 8.98201e-05 9.08848e-05 7.30052e-05 7.47543e-05 8.46685e-05 8.62813e-05 8.36348e-05 8.20928e-05 9.11296e-05 9.0144e-05 7.47543e-05 7.77563e-05 8.62813e-05 8.84309e-05 8.20928e-05 8.24585e-05 9.0144e-05 8.89148e-05 8.46685e-05 8.62813e-05 8.88909e-05 8.98201e-05 9.11296e-05 9.0144e-05 8.12892e-05 8.24943e-05 8.62813e-05 8.84309e-05 8.98201e-05 9.08848e-05 9.0144e-05 8.89148e-05 8.24943e-05 8.39306e-05 7.51332e-05 7.06171e-05 8.90343e-05 8.64618e-05 7.77563e-05 7.44024e-05 8.84309e-05 8.63453e-05 7.06171e-05 6.67378e-05 8.64618e-05 8.45289e-05 7.44024e-05 7.27691e-05 8.63453e-05 8.55046e-05 8.90343e-05 8.64618e-05 9.02238e-05 9.23977e-05 8.84309e-05 8.63453e-05 9.08848e-05 8.95028e-05 8.64618e-05 8.45289e-05 9.23977e-05 9.14109e-05 8.63453e-05 8.55046e-05 8.95028e-05 8.76118e-05 7.77563e-05 7.44024e-05 8.84309e-05 8.63453e-05 8.24585e-05 8.18775e-05 8.89148e-05 8.89223e-05 7.44024e-05 7.27691e-05 8.63453e-05 8.55046e-05 8.18775e-05 8.27274e-05 8.89223e-05 8.86486e-05 8.84309e-05 8.63453e-05 9.08848e-05 8.95028e-05 8.89148e-05 8.89223e-05 8.39306e-05 8.23787e-05 8.63453e-05 8.55046e-05 8.95028e-05 8.76118e-05 8.89223e-05 8.86486e-05 8.23787e-05 7.87593e-05 8.36348e-05 8.20928e-05 9.11296e-05 9.0144e-05 9.2574e-05 8.48293e-05 0.000105425 9.36909e-05 8.20928e-05 8.24585e-05 9.0144e-05 8.89148e-05 8.48293e-05 8.18775e-05 9.36909e-05 8.89223e-05 9.11296