# vtk DataFile Version 3.0
#This file was generated by the deal.II library on 2025/4/17 at 14:10:34
ASCII
DATASET UNSTRUCTURED_GRID

POINTS 8192 double
-0.353495 8.49761e-06 -0.353645
-0.461917 -0.00169955 -0.297924
-0.528766 -0.0100935 -0.528917
-0.639298 -0.00992565 -0.423518
-0.414309 -0.117332 -0.299631
-0.507826 -0.105797 -0.257958
-0.591262 -0.165848 -0.431656
-0.677103 -0.144534 -0.355804
-0.461917 -0.00169955 -0.297924
-0.568965 7.12578e-06 -0.23577
-0.639298 -0.00992565 -0.423518
-0.743792 -0.00569428 -0.311526
-0.507826 -0.105797 -0.257958
-0.600423 -0.0913891 -0.212121
-0.677103 -0.144534 -0.355804
-0.759307 -0.120678 -0.276547
-0.528766 -0.0100935 -0.528917
-0.639298 -0.00992565 -0.423518
-0.707051 6.87047e-06 -0.707195
-0.821529 -0.0028691 -0.548124
-0.591262 -0.165848 -0.431656
-0.677103 -0.144534 -0.355804
-0.773805 -0.202671 -0.563356
-0.851668 -0.174059 -0.451342
-0.639298 -0.00992565 -0.423518
-0.743792 -0.00569428 -0.311526
-0.821529 -0.0028691 -0.548124
-0.923809 6.23047e-06 -0.382745
-0.677103 -0.144534 -0.355804
-0.759307 -0.120678 -0.276547
-0.851668 -0.174059 -0.451342
-0.92277 -0.142846 -0.337124
-0.414309 -0.117332 -0.299631
-0.507826 -0.105797 -0.257958
-0.591262 -0.165848 -0.431656
-0.677103 -0.144534 -0.355804
-0.47134 -0.23568 -0.235772
-0.550649 -0.2112 -0.211292
-0.64513 -0.320094 -0.320186
-0.708744 -0.279117 -0.279209
-0.507826 -0.105797 -0.257958
-0.600423 -0.0913891 -0.212121
-0.677103 -0.144534 -0.355804
-0.759307 -0.120678 -0.276547
-0.550649 -0.2112 -0.211292
-0.629339 -0.184272 -0.184346
-0.708744 -0.279117 -0.279209
-0.770313 -0.236608 -0.236682
-0.591262 -0.165848 -0.431656
-0.677103 -0.144534 -0.355804
-0.773805 -0.202671 -0.563356
-0.851668 -0.174059 -0.451342
-0.64513 -0.320094 -0.320186
-0.708744 -0.279117 -0.279209
-0.824977 -0.399544 -0.399629
-0.871556 -0.342796 -0.342881
-0.677103 -0.144534 -0.355804
-0.759307 -0.120678 -0.276547
-0.851668 -0.174059 -0.451342
-0.92277 -0.142846 -0.337124
-0.708744 -0.279117 -0.279209
-0.770313 -0.236608 -0.236682
-0.871556 -0.342796 -0.342881
-0.914828 -0.285422 -0.28549
-0.568965 7.12578e-06 -0.23577
-0.536803 -0.00243579 -0.115895
-0.743792 -0.00569428 -0.311526
-0.749285 -0.0104482 -0.159008
-0.600423 -0.0913891 -0.212121
-0.570324 -0.105889 -0.105941
-0.759307 -0.120678 -0.276547
-0.757516 -0.142377 -0.142429
-0.536803 -0.00243579 -0.115895
-0.499919 8.66319e-06 -1.86348e-05
-0.749285 -0.0104482 -0.159008
-0.745603 -0.00993262 -0.00995992
-0.570324 -0.105889 -0.105941
-0.5368 -0.115842 -0.00246181
-0.757516 -0.142377 -0.142429
-0.749282 -0.158955 -0.0104742
-0.743792 -0.00569428 -0.311526
-0.749285 -0.0104482 -0.159008
-0.923809 6.23047e-06 -0.382745
-0.969318 -0.00332256 -0.190678
-0.759307 -0.120678 -0.276547
-0.757516 -0.142377 -0.142429
-0.92277 -0.142846 -0.337124
-0.951157 -0.169904 -0.16995
-0.749285 -0.0104482 -0.159008
-0.745603 -0.00993262 -0.00995992
-0.969318 -0.00332256 -0.190678
-0.999909 9.04036e-06 -1.60232e-05
-0.757516 -0.142377 -0.142429
-0.749282 -0.158955 -0.0104742
-0.951157 -0.169904 -0.16995
-0.96931 -0.190631 -0.00334581
-0.600423 -0.0913891 -0.212121
-0.570324 -0.105889 -0.105941
-0.759307 -0.120678 -0.276547
-0.757516 -0.142377 -0.142429
-0.629339 -0.184272 -0.184346
-0.600413 -0.212034 -0.0914336
-0.770313 -0.236608 -0.236682
-0.759298 -0.27646 -0.120722
-0.570324 -0.105889 -0.105941
-0.5368 -0.115842 -0.00246181
-0.757516 -0.142377 -0.142429
-0.749282 -0.158955 -0.0104742
-0.600413 -0.212034 -0.0914336
-0.568955 -0.235679 -1.55978e-05
-0.759298 -0.27646 -0.120722
-0.743782 -0.311435 -0.005717
-0.759307 -0.120678 -0.276547
-0.757516 -0.142377 -0.142429
-0.92277 -0.142846 -0.337124
-0.951157 -0.169904 -0.16995
-0.770313 -0.236608 -0.236682
-0.759298 -0.27646 -0.120722
-0.914828 -0.285422 -0.28549
-0.922758 -0.337041 -0.142885
-0.757516 -0.142377 -0.142429
-0.749282 -0.158955 -0.0104742
-0.951157 -0.169904 -0.16995
-0.96931 -0.190631 -0.00334581
-0.759298 -0.27646 -0.120722
-0.743782 -0.311435 -0.005717
-0.922758 -0.337041 -0.142885
-0.923791 -0.382658 -1.34221e-05
-0.47134 -0.23568 -0.235772
-0.550649 -0.2112 -0.211292
-0.64513 -0.320094 -0.320186
-0.708744 -0.279117 -0.279209
-0.4143 -0.299504 -0.117386
-0.507816 -0.257831 -0.10585
-0.591253 -0.431529 -0.165901
-0.677093 -0.355677 -0.144588
-0.550649 -0.2112 -0.211292
-0.629339 -0.184272 -0.184346
-0.708744 -0.279117 -0.279209
-0.770313 -0.236608 -0.236682
-0.507816 -0.257831 -0.10585
-0.600413 -0.212034 -0.0914336
-0.677093 -0.355677 -0.144588
-0.759298 -0.27646 -0.120722
-0.64513 -0.320094 -0.320186
-0.708744 -0.279117 -0.279209
-0.824977 -0.399544 -0.399629
-0.871556 -0.342796 -0.342881
-0.591253 -0.431529 -0.165901
-0.677093 -0.355677 -0.144588
-0.773788 -0.56323 -0.202717
-0.851651 -0.451216 -0.174105
-0.708744 -0.279117 -0.279209
-0.770313 -0.236608 -0.236682
-0.871556 -0.342796 -0.342881
-0.914828 -0.285422 -0.28549
-0.677093 -0.355677 -0.144588
-0.759298 -0.27646 -0.120722
-0.851651 -0.451216 -0.174105
-0.922758 -0.337041 -0.142885
-0.4143 -0.299504 -0.117386
-0.507816 -0.257831 -0.10585
-0.591253 -0.431529 -0.165901
-0.677093 -0.355677 -0.144588
-0.353487 -0.353508 -1.79155e-05
-0.461909 -0.297786 -0.00172596
-0.528759 -0.528779 -0.0101199
-0.639291 -0.42338 -0.00995206
-0.507816 -0.257831 -0.10585
-0.600413 -0.212034 -0.0914336
-0.677093 -0.355677 -0.144588
-0.759298 -0.27646 -0.120722
-0.461909 -0.297786 -0.00172596
-0.568955 -0.235679 -1.55978e-05
-0.639291 -0.42338 -0.00995206
-0.743782 -0.311435 -0.005717
-0.591253 -0.431529 -0.165901
-0.677093 -0.355677 -0.144588
-0.773788 -0.56323 -0.202717
-0.851651 -0.451216 -0.174105
-0.528759 -0.528779 -0.0101199
-0.639291 -0.42338 -0.00995206
-0.707033 -0.707055 -1.56638e-05
-0.821511 -0.547984 -0.00289163
-0.677093 -0.355677 -0.144588
-0.759298 -0.27646 -0.120722
-0.851651 -0.451216 -0.174105
-0.922758 -0.337041 -0.142885
-0.639291 -0.42338 -0.00995206
-0.743782 -0.311435 -0.005717
-0.821511 -0.547984 -0.00289163
-0.923791 -0.382658 -1.34221e-05
-0.353495 8.49761e-06 -0.353645
-0.461917 -0.00169955 -0.297924
-0.414309 -0.117332 -0.299631
-0.507826 -0.105797 -0.257958
-0.174082 -0.0144893 -0.174202
-0.353643 -0.0141615 -0.152458
-0.294358 -0.154863 -0.154943
-0.431953 -0.13413 -0.13421
-0.461917 -0.00169955 -0.297924
-0.568965 7.12578e-06 -0.23577
-0.507826 -0.105797 -0.257958
-0.600423 -0.0913891 -0.212121
-0.353643 -0.0141615 -0.152458
-0.536803 -0.00243579 -0.115895
-0.431953 -0.13413 -0.13421
-0.570324 -0.105889 -0.105941
-0.414309 -0.117332 -0.299631
-0.507826 -0.105797 -0.257958
-0.47134 -0.23568 -0.235772
-0.550649 -0.2112 -0.211292
-0.294358 -0.154863 -0.154943
-0.431953 -0.13413 -0.13421
-0.4143 -0.299504 -0.117386
-0.507816 -0.257831 -0.10585
-0.507826 -0.105797 -0.257958
-0.600423 -0.0913891 -0.212121
-0.550649 -0.2112 -0.211292
-0.629339 -0.184272 -0.184346
-0.431953 -0.13413 -0.13421
-0.570324 -0.105889 -0.105941
-0.507816 -0.257831 -0.10585
-0.600413 -0.212034 -0.0914336
-0.174082 -0.0144893 -0.174202
-0.353643 -0.0141615 -0.152458
-0.294358 -0.154863 -0.154943
-0.431953 -0.13413 -0.13421
4.00229e-05 1.31096e-05 -2.84328e-05
-0.243756 -0.0126144 -0.0126559
-0.174094 -0.174121 -0.0145284
-0.353655 -0.152376 -0.0142005
-0.353643 -0.0141615 -0.152458
-0.536803 -0.00243579 -0.115895
-0.431953 -0.13413 -0.13421
-0.570324 -0.105889 -0.105941
-0.243756 -0.0126144 -0.0126559
-0.499919 8.66319e-06 -1.86348e-05
-0.353655 -0.152376 -0.0142005
-0.5368 -0.115842 -0.00246181
-0.294358 -0.154863 -0.154943
-0.431953 -0.13413 -0.13421
-0.4143 -0.299504 -0.117386
-0.507816 -0.257831 -0.10585
-0.174094 -0.174121 -0.0145284
-0.353655 -0.152376 -0.0142005
-0.353487 -0.353508 -1.79155e-05
-0.461909 -0.297786 -0.00172596
-0.431953 -0.13413 -0.13421
-0.570324 -0.105889 -0.105941
-0.507816 -0.257831 -0.10585
-0.600413 -0.212034 -0.0914336
-0.353655 -0.152376 -0.0142005
-0.5368 -0.115842 -0.00246181
-0.461909 -0.297786 -0.00172596
-0.568955 -0.235679 -1.55978e-05
0.353509 -3.58758e-06 0.353639
0.411138 0.117657 0.285404
0.537374 -0.0281814 0.537504
0.596718 0.137255 0.402442
0.459949 -0.00425472 0.291174
0.503537 0.102395 0.243106
0.64161 -0.0301195 0.417877
0.678214 0.118475 0.329258
0.411138 0.117657 0.285404
0.471352 0.235685 0.235765
0.596718 0.137255 0.402442
0.660995 0.312248 0.3123
0.503537 0.102395 0.243106
0.548526 0.208461 0.208539
0.678214 0.118475 0.329258
0.717561 0.269694 0.269756
0.537374 -0.0281814 0.537504
0.596718 0.137255 0.402442
0.707067 -2.34923e-06 0.707189
0.757765 0.193315 0.519772
0.64161 -0.0301195 0.417877
0.678214 0.118475 0.329258
0.807831 -0.0161498 0.544576
0.831542 0.161699 0.42182
0.596718 0.137255 0.402442
0.660995 0.312248 0.3123
0.757765 0.193315 0.519772
0.81647 0.40823 0.408255
0.678214 0.118475 0.329258
0.717561 0.269694 0.269756
0.831542 0.161699 0.42182
0.859879 0.346719 0.346762
0.459949 -0.00425472 0.291174
0.503537 0.102395 0.243106
0.64161 -0.0301195 0.417877
0.678214 0.118475 0.329258
0.568978 -3.52016e-06 0.235764
0.59844 0.0930917 0.205936
0.753849 -0.013821 0.304246
0.766569 0.108336 0.258918
0.503537 0.102395 0.243106
0.548526 0.208461 0.208539
0.678214 0.118475 0.329258
0.717561 0.269694 0.269756
0.59844 0.0930917 0.205936
0.628498 0.185144 0.185203
0.766569 0.108336 0.258918
0.78081 0.229522 0.229579
0.64161 -0.0301195 0.417877
0.678214 0.118475 0.329258
0.807831 -0.0161498 0.544576
0.831542 0.161699 0.42182
0.753849 -0.013821 0.304246
0.766569 0.108336 0.258918
0.923822 -3.01112e-06 0.382738
0.917466 0.143667 0.322822
0.678214 0.118475 0.329258
0.717561 0.269694 0.269756
0.831542 0.161699 0.42182
0.859879 0.346719 0.346762
0.766569 0.108336 0.258918
0.78081 0.229522 0.229579
0.917466 0.143667 0.322822
0.913905 0.286922 0.28697
0.471352 0.235685 0.235765
0.411126 0.285288 0.117699
0.660995 0.312248 0.3123
0.596707 0.402344 0.137284
0.548526 0.208461 0.208539
0.503524 0.242992 0.102435
0.717561 0.269694 0.269756
0.678202 0.329154 0.118508
0.411126 0.285288 0.117699
0.353496 0.353513 8.8715e-06
0.596707 0.402344 0.137284
0.537362 0.537378 -0.028169
[...]
POINT_DATA 8192
SCALARS D_0 double 1
LOOKUP_TABLE default
1.46475e-05 1.28541e-05 1.69697e-05 1.39575e-05 1.2902e-05 1.1972e-05 1.43108e-05 1.28679e-05 1.28541e-05 1.1653e-05 1.39575e-05 1.24038e-05 1.1972e-05 1.1398e-05 1.28679e-05 1.21174e-05 1.69697e-05 1.39575e-05 1.41506e-05 1.15771e-05 1.43108e-05 1.28679e-05 1.1783e-05 1.09368e-05 1.39575e-05 1.24038e-05 1.15771e-05 1.09218e-05 1.28679e-05 1.21174e-05 1.09368e-05 1.10888e-05 1.2902e-05 1.1972e-05 1.43108e-05 1.28679e-05 1.1483e-05 1.12636e-05 1.22872e-05 1.20636e-05 1.1972e-05 1.1398e-05 1.28679e-05 1.21174e-05 1.12636e-05 1.11992e-05 1.20636e-05 1.18801e-05 1.43108e-05 1.28679e-05 1.1783e-05 1.09368e-05 1.22872e-05 1.20636e-05 1.0835e-05 1.08883e-05 1.28679e-05 1.21174e-05 1.09368e-05 1.10888e-05 1.20636e-05 1.18801e-05 1.08883e-05 1.11693e-05 1.1653e-05 1.01731e-05 1.24038e-05 1.17162e-05 1.1398e-05 1.02879e-05 1.21174e-05 1.16855e-05 1.01731e-05 9.1024e-06 1.17162e-05 1.1235e-05 1.02879e-05 9.47924e-06 1.16855e-05 1.13995e-05 1.24038e-05 1.17162e-05 1.09218e-05 1.17747e-05 1.21174e-05 1.16855e-05 1.10888e-05 1.17412e-05 1.17162e-05 1.1235e-05 1.17747e-05 1.23179e-05 1.16855e-05 1.13995e-05 1.17412e-05 1.21198e-05 1.1398e-05 1.02879e-05 1.21174e-05 1.16855e-05 1.11992e-05 1.04562e-05 1.18801e-05 1.17313e-05 1.02879e-05 9.47924e-06 1.16855e-05 1.13995e-05 1.04562e-05 9.93553e-06 1.17313e-05 1.16388e-05 1.21174e-05 1.16855e-05 1.10888e-05 1.17412e-05 1.18801e-05 1.17313e-05 1.11693e-05 1.17735e-05 1.16855e-05 1.13995e-05 1.17412e-05 1.21198e-05 1.17313e-05 1.16388e-05 1.17735e-05 1.19368e-05 1.1483e-05 1.12636e-05 1.22872e-05 1.20636e-05 9.90087e-06 1.00999e-05 1.15206e-05 1.1595e-05 1.12636e-05 1.11992e-05 1.20636e-05 1.18801e-05 1.00999e-05 1.04562e-05 1.1595e-05 1.17313e-05 1.22872e-05 1.20636e-05 1.0835e-05 1.08883e-05 1.15206e-05 1.1595e-05 1.13686e-05 1.15236e-05 1.20636e-05 1.18801e-05 1.08883e-05 1.11693e-05 1.1595e-05 1.17313e-05 1.15236e-05 1.17735e-05 9.90087e-06 1.00999e-05 1.15206e-05 1.1595e-05 9.05645e-06 9.4498e-06 1.1169e-05 1.12717e-05 1.00999e-05 1.04562e-05 1.1595e-05 1.17313e-05 9.4498e-06 9.93553e-06 1.12717e-05 1.16388e-05 1.15206e-05 1.1595e-05 1.13686e-05 1.15236e-05 1.1169e-05 1.12717e-05 1.23007e-05 1.19702e-05 1.1595e-05 1.17313e-05 1.15236e-05 1.17735e-05 1.12717e-05 1.16388e-05 1.19702e-05 1.19368e-05 1.46475e-05 1.28541e-05 1.2902e-05 1.1972e-05 8.47226e-06 9.11899e-06 8.93585e-06 9.57245e-06 1.28541e-05 1.1653e-05 1.1972e-05 1.1398e-05 9.11899e-06 1.01731e-05 9.57245e-06 1.02879e-05 1.2902e-05 1.1972e-05 1.1483e-05 1.12636e-05 8.93585e-06 9.57245e-06 9.90087e-06 1.00999e-05 1.1972e-05 1.1398e-05 1.12636e-05 1.11992e-05 9.57245e-06 1.02879e-05 1.00999e-05 1.04562e-05 8.47226e-06 9.11899e-06 8.93585e-06 9.57245e-06 7.95757e-07 5.16745e-06 5.2178e-06 7.39046e-06 9.11899e-06 1.01731e-05 9.57245e-06 1.02879e-05 5.16745e-06 9.1024e-06 7.39046e-06 9.47924e-06 8.93585e-06 9.57245e-06 9.90087e-06 1.00999e-05 5.2178e-06 7.39046e-06 9.05645e-06 9.4498e-06 9.57245e-06 1.02879e-05 1.00999e-05 1.04562e-05 7.39046e-06 9.47924e-06 9.4498e-06 9.93553e-06 1.34571e-05 1.12329e-05 1.55946e-05 1.23559e-05 1.14053e-05 1.02997e-05 1.23094e-05 1.10115e-05 1.12329e-05 9.93245e-06 1.23559e-05 1.0225e-05 1.02997e-05 9.66446e-06 1.10115e-05 1.0155e-05 1.55946e-05 1.23559e-05 1.32056e-05 9.90994e-06 1.23094e-05 1.10115e-05 1.01322e-05 9.07072e-06 1.23559e-05 1.0225e-05 9.90994e-06 8.44955e-06 1.10115e-05 1.0155e-05 9.07072e-06 8.90458e-06 1.14053e-05 1.02997e-05 1.23094e-05 1.10115e-05 1.0207e-05 9.84993e-06 1.0624e-05 1.03187e-05 1.02997e-05 9.66446e-06 1.10115e-05 1.0155e-05 9.84993e-06 9.66724e-06 1.03187e-05 1.01387e-05 1.23094e-05 1.10115e-05 1.01322e-05 9.07072e-06 1.0624e-05 1.03187e-05 8.94023e-06 9.2588e-06 1.10115e-05 1.0155e-05 9.07072e-06 8.90458e-06 1.03187e-05 1.01387e-05 9.2588e-06 9.28024e-06 9.93245e-06 8.35501e-06 1.0225e-05 9.64685e-06 9.66446e-06 8.61216e-06 1.0155e-05 9.96454e-06 8.35501e-06 7.92122e-06 9.64685e-06 9.99652e-06 8.61216e-06 8.24631e-06 9.96454e-06 1.02401e-05 1.0225e-05 9.64685e-06 8.44955e-06 9.53251e-06 1.0155e-05 9.96454e-06 8.90458e-06 1.00562e-05 9.64685e-06 9.99652e-06 9.53251e-06 1.07925e-05 9.96454e-06 1.02401e-05 1.00562e-05 1.08147e-05 9.66446e-06 8.61216e-06 1.0155e-05 9.96454e-06 9.66724e-06 9.12368e-06 1.01387e-05 1.03613e-05 8.61216e-06 8.24631e-06 9.96454e-06 1.02401e-05 9.12368e-06 8.86222e-06 1.03613e-05 1.07055e-05 1.0155e-05 9.96454e-06 8.90458e-06 1.00562e-05 1.01387e-05 1.03613e-05 9.28024e-06 1.0362e-05 9.96454e-06 1.02401e-05 1.00562e-05 1.08147e-05 1.03613e-05 1.07055e-05 1.0362e-05 1.11511e-05 1.0207e-05 9.84993e-06 1.0624e-05 1.03187e-05 8.86511e-06 8.89044e-06 1.01878e-05 1.0144e-05 9.84993e-06 9.66724e-06 1.03187e-05 1.01387e-05 8.89044e-06 9.12368e-06 1.0144e-05 1.03613e-05 1.0624e-05 1.03187e-05 8.94023e-06 9.2588e-06 1.01878e-05 1.0144e-05 1.01316e-05 1.02895e-05 1.03187e-05 1.01387e-05 9.2588e-06 9.28024e-06 1.0144e-05 1.03613e-05 1.02895e-05 1.0362e-05 8.86511e-06 8.89044e-06 1.01878e-05 1.0144e-05 7.98539e-06 8.36228e-06 1.02032e-05 1.0432e-05 8.89044e-06 9.12368e-06 1.0144e-05 1.03613e-05 8.36228e-06 8.86222e-06 1.0432e-05 1.07055e-05 1.01878e-05 1.0144e-05 1.01316e-05 1.02895e-05 1.02032e-05 1.0432e-05 1.10189e-05 1.112e-05 1.0144e-05 1.03613e-05 1.02895e-05 1.0362e-05 1.0432e-05 1.07055e-05 1.112e-05 1.11511e-05 1.34571e-05 1.12329e-05 1.14053e-05 1.02997e-05 7.68142e-06 6.97925e-06 7.63154e-06 7.8026e-06 1.12329e-05 9.93245e-06 1.02997e-05 9.66446e-06 6.97925e-06 8.35501e-06 7.8026e-06 8.61216e-06 1.14053e-05 1.02997e-05 1.0207e-05 9.84993e-06 7.63154e-06 7.8026e-06 8.86511e-06 8.89044e-06 1.02997e-05 9.66446e-06 9.84993e-06 9.66724e-06 7.8026e-06 8.61216e-06 8.89044e-06 9.12368e-06 7.68142e-06 6.97925e-06 7.63154e-06 7.8026e-06 7.95757e-07 4.34932e-06 4.18289e-06 6.29406e-06 6.97925e-06 8.35501e-06 7.8026e-06 8.61216e-06 4.34932e-06 7.92122e-06 6.29406e-06 8.24631e-06 7.63154e-06 7.8026e-06 8.86511e-06 8.89044e-06 4.18289e-06 6.29406e-06 7.98539e-06 8.36228e-06 7.8026e-06 8.61216e-06 8.89044e-06 9.12368e-06 6.29406e-06 8.24631e-06 8.36228e-06 8.86222e-06 1.81141e-05 1.87633e-05 2.24258e-05 2.19744e-05 1.88209e-05 1.93478e-05 2.18876e-05 2.15804e-05 1.87633e-05 1.90275e-05 2.19744e-05 2.05909e-05 1.93478e-05 1.94639e-05 2.15804e-05 2.07225e-05 2.24258e-05 2.19744e-05 2.25447e-05 2.21839e-05 2.18876e-05 2.15804e-05 2.20987e-05 2.18324e-05 2.19744e-05 2.05909e-05 2.21839e-05 2.04335e-05 2.15804e-05 2.07225e-05 2.18324e-05 2.00586e-05 1.88209e-05 1.93478e-05 2.18876e-05 2.15804e-05 1.89039e-05 1.94245e-05 2.05384e-05 2.08029e-05 1.93478e-05 1.94639e-05 2.15804e-05 2.07225e-05 1.94245e-05 1.95229e-05 2.08029e-05 2.03215e-05 2.18876e-05 2.15804e-05 2.20987e-05 2.18324e-05 2.05384e-05 2.08029e-05 2.00966e-05 2.0155e-05 2.15804e-05 2.07225e-05 2.18324e-05 2.00586e-05 2.08029e-05 2.03215e-05 2.0155e-05 1.96588e-05 1.90275e-05 1.65842e-05 2.05909e-05 1.85358e-05 1.94639e-05 1.74671e-05 2.07225e-05 1.91164e-05 1.65842e-05 1.37647e-05 1.85358e-05 1.58349e-05 1.74671e-05 1.5077e-05 1.91164e-05 1.70888e-05 2.05909e-05 1.85358e-05 2.04335e-05 1.68533e-05 2.07225e-05 1.91164e-05 2.00586e-05 1.77566e-05 1.85358e-05 1.58349e-05 1.68533e-05 1.35479e-05 1.91164e-05 1.70888e-05 1.77566e-05 1.51139e-05 1.94639e-05 1.74671e-05 2.07225e-05 1.91164e-05 1.95229e-05 1.80138e-05 2.03215e-05 1.90629e-05 1.74671e-05 1.5077e-05 1.91164e-05 1.70888e-05 1.80138e-05 1.62564e-05 1.90629e-05 1.76958e-05 2.07225e-05 1.91164e-05 2.00586e-05 1.77566e-05 2.03215e-05 1.90629e-05 1.96588e-05 1.7978e-05 1.91164e-05 1.70888e-05 1.77566e-05 1.51139e-05 1.90629e-05 1.76958e-05 1.7978e-05 1.58036e-05 1.89039e-05 1.94245e-05 2.05384e-05 2.08029e-05 1.62913e-05 1.72509e-05 1.84711e-05 1.91619e-05 1.94245e-05 1.95229e-05 2.08029e-05 2.03215e-05 1.72509e-05 1.80138e-05 1.91619e-05 1.90629e-05 2.05384e-05 2.08029e-05 2.00966e-05 2.0155e-05 1.84711e-05 1.91619e-05 1.69188e-05 1.77877e-05 2.08029e-05 2.03215e-05 2.0155e-05 1.96588e-05 1.91619e-05 1.90629e-05 1.77877e-05 1.7978e-05 1.62913e-05 1.72509e-05 1.84711e-05 1.91619e-05 1.34136e-05 1.47109e-05 1.55512e-05 1.68902e-05 1.72509e-05 1.80138e-05 1.91619e-05 1.90629e-05 1.47109e-05 1.62564e-05 1.68902e-05 1.76958e-05 1.84711e-05 1.91619e-05 1.69188e-05 1.77877e-05 1.55512e-05 1.68902e-05 1.30907e-05 1.47912e-05 1.91619e-05 1.90629e-05 1.77877e-05 1.7978e-05 1.68902e-05 1.76958e-05 1.47912e-05 1.58036e-05 1.81141e-05 1.87633e-05 1.88209e-05 1.93478e-05 1.01932e-05 1.36306e-05 1.36921e-05 1.57179e-05 1.87633e-05 1.90275e-05 1.93478e-05 1.94639e-05 1.36306e-05 1.65842e-05 1.57179e-05 1.74671e-05 1.88209e-05 1.93478e-05 1.89039e-05 1.94245e-05 1.36921e-05 1.57179e-05 1.62913e-05 1.72509e-05 1.93478e-05 1.94639e-05 1.94245e-05 1.95229e-05 1.57179e-05 1.74671e-05 1.72509e-05 1.80138e-05 1.01932e-05 1.36306e-05 1.36921e-05 1.57179e-05 7.95757e-07 7.54156e-06 7.7412e-06 1.14029e-05 1.36306e-05 1.65842e-05 1.57179e-05 1.74671e-05 7.54156e-06 1.37647e-05 1.14029e-05 1.5077e-05 1.36921e-05 1.57179e-05 1.62913e-05 1.72509e-05 7.7412e-06 1.14029e-05 1.34136e-05 1.47109e-05 1.57179e-05 1.74671e-05 1.72509e-05 1.80138e-05 1.14029e-05 1.5077e-05 1.47109e-05 1.62564e-05 1.93947e-05 2.01735e-05 2.44078e-05 2.3732e-05 2.01344e-05 2.07646e-05 2.37109e-05 2.34349e-05 2.01735e-05 2.02054e-05 2.3732e-05 2.19763e-05 2.07646e-05 2.08246e-05 2.34349e-05 2.21928e-05 2.44078e-05 2.3732e-05 2.47796e-05 2.43903e-05 2.37109e-05 2.34349e-05 2.38607e-05 2.35607e-05 2.3732e-05 2.19763e-05 2.43903e-05 2.15823e-05 2.34349e-05 2.21928e-05 2.35607e-05 2.17647e-05 2.01344e-05 2.07646e-05 2.37109e-05 2.34349e-05 2.0112e-05 2.07689e-05 2.20363e-05 2.24174e-05 2.07646e-05 2.08246e-05 2.34349e-05 2.21928e-05 2.07689e-05 2.09067e-05 2.24174e-05 2.19445e-05 2.37109e-05 2.34349e-05 2.38607e-05 2.35607e-05 2.20363e-05 2.24174e-05 2.15176e-05 2.21416e-05 2.34349e-05 2.21928e-05 2.35607e-05 2.17647e-05 2.24174e-05 2.19445e-05 2.21416e-05 2.10018e-05 2.02054e-05 1.74693e-05 2.19763e-05 1.96863e-05 2.08246e-05 1.85857e-05 2.21928e-05 2.0528e-05 1.74693e-05 1.43944e-05 1.96863e-05 1.68215e-05 1.85857e-05 1.60185e-05 2.0528e-05 1.83776e-05 2.19763e-05 1.96863e-05 2.15823e-05 1.78012e-05 2.21928e-05 2.0528e-05 2.17647e-05 1.91276e-05 1.96863e-05 1.68215e-05 1.78012e-05 1.44374e-05 2.0528e-05 1.83776e-05 1.91276e-05 1.63428e-05 2.08246e-05 1.85857e-05 2.21928e-05 2.0528e-05 2.09067e-05 1.91663e-05 2.19445e-05 2.06791e-05 1.85857e-05 1.60185e-05 2.0528e-05 1.83776e-05 1.91663e-05 1.71728e-05 2.06791e-05 1.91932e-05 2.21928e-05 2.0528e-05 2.17647e-05 1.91276e-05 2.19445e-05 2.06791e-05 2.10018e-05 1.95278e-05 2.0528e-05 1.83776e-05 1.91276e-05 1.63428e-05 2.06791e-05 1.91932e-05 1.95278e-05 1.73036e-05 2.0112e-05 2.07689e-05 2.20363e-05 2.24174e-05 1.731e-05 1.84723e-05 1.96217e-05 2.07599e-05 2.07689e-05 2.09067e-05 2.24174e-05 2.19445e-05 1.84723e-05 1.91663e-05 2.07599e-05 2.06791e-05 2.20363e-05 2.24174e-05 2.15176e-05 2.21416e-05 1.96217e-05 2.07599e-05 1.79609e-05 1.95997e-05 2.24174e-05 2.19445e-05 2.21416e-05 2.10018e-05 2.07599e-05 2.06791e-05 1.95997e-05 1.95278e-05 1.731e-05 1.84723e-05 1.96217e-05 2.07599e-05 1.41949e-05 1.58665e-05 1.69221e-05 1.85588e-05 1.84723e-05 1.91663e-05 2.07599e-05 2.06791e-05 1.58665e-05 1.71728e-05 1.85588e-05 1.91932e-05 1.96217e-05 2.07599e-05 1.79609e-05 1.95997e-05 1.69221e-05 1.85588e-05 1.40999e-05 1.6857e-05 2.07599e-05 2.06791e-05 1.95997e-05 1.95278e-05 1.85588e-05 1.91932e-05 1.6857e-05 1.73036e-05 1.93947e-05 2.01735e-05 2.01344e-05 2.07646e-05 1.05381e-05 1.44715e-05 1.45251e-05 1.6917e-05 2.01735e-05 2.02054e-05 2.07646e-05 2.08246e-05 1.44715e-05 1.74693e-05 1.6917e-05 1.85857e-05 2.01344e-05 2.07646e-05 2.0112e-05 2.07689e-05 1.45251e-05 1.6917e-05 1.731e-05 1.84723e-05 2.07646e-05 2.08246e-05 2.07689e-05 2.09067e-05 1.6917e-05 1.85857e-05 1.84723e-05 1.91663e-05 1.05381e-05 1.44715e-05 1.45251e-05 1.6917e-05 7.95757e-07 8.21609e-06 8.34769e-06 1.24919e-05 1.44715e-05 1.74693e-05 1.6917e-05 1.85857e-05 8.21609e-06 1.43944e-05 1.24919e-05 1.60185e-05 1.45251e-05 1.6917e-05 1.731e-05 1.84723e-05 8.34769e-06 1.24919e-05 1.41949e-05 1.58665e-05 1.6917e-05 1.85857e-05 1.84723e-05 1.91663e-05 1.24919e-05 1.60185e-05 1.58665e-05 1.71728e-05 1.37843e-05 1.19211e-05 1.58324e-05 1.32926e-05 1.20648e-05 1.11137e-05 1.30822e-05 1.20455e-05 1.19211e-05 1.06029e-05 1.32926e-05 1.13868e-05 1.11137e-05 1.04448e-05 1.20455e-05 1.12293e-05 1.58324e-05 1.32926e-05 1.37141e-05 1.10359e-05 1.30822e-05 1.20455e-05 1.10556e-05 1.0276e-05 1.32926e-05 1.13868e-05 1.10359e-05 9.78275e-06 1.20455e-05 1.12293e-05 1.0276e-05 1.00387e-05 1.20648e-05 1.11137e-05 1.30822e-05 1.20455e-05 1.09812e-05 1.06924e-05 1.16719e-05 1.14521e-05 1.11137e-05 1.04448e-05 1.20455e-05 1.12293e-05 1.06924e-05 1.0507e-05 1.14521e-05 1.11763e-05 1.30822e-05 1.20455e-05 1.10556e-05 1.0276e-05 1.16719e-05 1.14521e-05 1.0275e-05 1.04788e-05 1.20455e-05 1.12293e-05 1.0276e-05 1.00387e-05 1.14521e-05 1.11763e-05 1.04788e-05 1.04572e-05 1.06029e-05 8.84981e-06 1.13868e-05 1.03856e-05 1.04448e-05 9.159e-06 1.12293e-05 1.06898e-05 8.84981e-06 8.16848e-06 1.03856e-05 1.01967e-05 9.159e-06 8.57582e-06 1.06898e-05 1.046e-05 1.13868e-05 1.03856e-05 9.78275e-06 1.03358e-05 1.12293e-05 1.06898e-05 1.00387e-05 1.07813e-05 1.03856e-05 1.01967e-05 1.03358e-05 1.11549e-05 1.06898e-05 1.046e-05 1.07813e-05 1.12157e-05 1.04448e-05 9.159e-06 1.12293e-05 1.06898e-05 1.0507e-05 9.74822e-06 1.11763e-05 1.11491e-05 9.159e-06 8.57582e-06 1.06898e-05 1.046e-05 9.74822e-06 9.27026e-06 1.11491e-05 1.10325e-05 1.12293e-05 1.06898e-05 1.00387e-05 1.07813e-05 1.11763e-05 1.11491e-05 1.04572e-05 1.10976e-05 1.06898e-05 1.046e-05 1.07813e-05 1.12157e-05 1.11491e-05 1.10325e-05 1.10976e-05 1.16011e-05 1.09812e-05 1.06924e-05 1.16719e-05 1.14521e-05 9.59683e-06 9.6267e-06 1.11145e-05 1.10722e-05 1.06924e-05 1.0507e-05 1.14521e-05 1.11763e-05 9.6267e-06 9.74822e-06 1.10722e-05 1.11491e-05 1.16719e-05 1.14521e-05 1.0275e-05 1.04788e-05 1.11145e-05 1.10722e-05 1.11415e-05 1.14478e-05 1.14521e-05 1.11763e-05 1.04788e-05 1.04572e-05 1.10722e-05 1.11491e-05 1.14478e-05 1.10976e-05 9.59683e-06 9.6267e-06 1.11145e-05 1.10722e-05 8.64045e-06 8.8967e-06 1.07347e-05 1.09401e-05 9.6267e-06 9.74822e-06 1.10722e-05 1.11491e-05 8.8967e-06 9.27026e-06 1.09401e-05 1.10325e-05 1.11145e-05 1.10722e-05 1.11415e-05 1.14478e-05 1.07347e-05 1.09401e-05 1.18105e-05 1.17721e-05 1.10722e-05 1.11491e-05 1.14478e-05 1.10976e-05 1.09401e-05 1.10325e-05 1.17721e-05 1.16011e-05 1.37843e-05 1.19211e-05 1.20648e-05 1.11137e-05 7.45787e-06 7.56164e-06 8.11534e-06 8.49882e-06 1.19211e-05 1.06029e-05 1.11137e-05 1.04448e-05 7.56164e-06 8.84981e-06 8.49882e-06 9.159e-06 1.20648e-05 1.11137e-05 1.09812e-05 1.06924e-05 8.11534e-06 8.49882e-06 9.59683e-06 9.6267e-06 1.11137e-05 1.04448e-05 1.06924e-05 1.0507e-05 8.49882e-06 9.159e-06 9.6267e-06 9.74822e-06 7.45787e-06 7.56164e-06 8.11534e-06 8.49882e-06 7.95757e-07 4.31643e-06 4.73583e-06 6.62892e-06 7.56164e-06 8.84981e-06 8.49882e-06 9.159e-06 4.31643e-06 8.16848e-06 6.62892e-06 8.57582e-06 8.11534e-06 8.49882e-06 9.59683e-06 9.6267e-06 4.73583e-06 6.62892e-06 8.64045e-06 8.8967e-06 8.49882e-06 9.159e-06 9.6267e-06 9.74822e-06 6.62892e-06 8.57582e-06 8.8967e-06 9.27026e-06 8.73122e-06 9.6236e-06 1.05491e-05 1.10296e-05 9.00937e-06 9.77292e-06 1.07024e-05 1.11771e-05 9.6236e-06 1.13264e-05 1.10296e-05 1.22536e-05 9.77292e-06 1.10827e-05 1.11771e-05 1.18607e-05 1.05491e-05 1.10296e-05 1.12422e-05 1.09271e-05 1.07024e-05 1.11771e-05 1.12503e-05 1.10709e-05 1.10296e-05 1.22536e-05 1.09271e-05 1.04626e-05 1.11771e-05 1.18607e-05 1.10709e-05 1.05455e-05 9.00937e-06 9.77292e-06 1.07024e-05 1.11771e-05 9.48687e-06 1.00709e-05 1.12474e-05 1.13008e-05 9.77292e-06 1.10827e-05 1.11771e-05 1.18607e-05 1.00709e-05 1.09432e-05 1.13008e-05 1.16003e-05 1.07024e-05 1.11771e-05 1.12503e-05 1.10709e-05 1.12474e-05 1.13008e-05 1.1388e-05 1.13756e-05 1.11771e-05 1.18607e-05 1.10709e-05 1.05455e-05 1.13008e-05 1.16003e-05 1.13756e-05 1.06991e-05 1.13264e-05 1.28159e-05 1.22536e-05 1.46773e-05 1.10827e-05 1.18137e-05 1.18607e-05 1.29612e-05 1.28159e-05 1.45543e-05 1.46773e-05 1.73378e-05 1.18137e-05 1.26846e-05 1.29612e-05 1.40596e-05 1.22536e-05 1.46773e-05 1.04626e-05 1.21736e-05 1.18607e-05 1.29612e-05 1.05455e-05 1.09082e-05 1.46773e-05 1.73378e-05 1.21736e-05 1.46965e-05 1.29612e-05 1.40596e-05 1.09082e-05 1.17254e-05 1.10827e-05 1.18137e-05 1.18607e-05 1.29612e-05 1.09432e-05 1.11742e-05 1.16003e-05 1.20574e-05 1.18137e-05 1.26846e-05 1.29612e-05 1.40596e-05 1.11742e-05 1.13993e-05 1.20574e-05 1.23297e-05 1.18607e-05 1.29612e-05 1.05455e-05 1.09082e-05 1.16003e-05 1.20574e-05 1.06991e-05 1.08149e-05 1.29612e-05 1.40596e-05 1.09082e-05 1.17254e-05 1.20574e-05 1.23297e-05 1.08149e-05 1.0864e-05 9.48687e-06 1.00709e-05 1.12474e-05 1.13008e-05 8.92197e-06 9.88089e-06 1.0925e-05 1.13612e-05 1.00709e-05 1.09432e-05 1.13008e-05 1.16003e-05 9.88089e-06 1.11742e-05 1.13612e-05 1.20574e-05 1.12474e-05 1.13008e-05 1.1388e-05 1.13756e-05 1.0925e-05 1.13612e-05 1.16843e-05 1.14454e-05 1.13008e-05 1.16003e-05 1.13756e-05 1.06991e-05 1.13612e-05 1.20574e-05 1.14454e-05 1.08149e-05 8.92197e-06 9.88089e-06 1.0925e-05 1.13612e-05 8.42632e-06 9.69583e-06 1.06831e-05 1.14438e-05 9.88089e-06 1.11742e-05 1.13612e-05 1.20574e-05 9.69583e-06 1.13993e-05 1.14438e-05 1.23297e-05 1.0925e-05 1.13612e-05 1.16843e-05 1.14454e-05 1.06831e-05 1.14438e-05 1.15437e-05 1.15106e-05 1.13612e-05 1.20574e-05 1.14454e-05 1.08149e-05 1.14438e-05 1.23297e-05 1.15106e-05 1.0864e-05 8.73122e-06 9.6236e-06 9.00937e-06 9.77292e-06 5.0144e-06 8.81471e-06 6.95564e-06 9.2967e-06 9.6236e-06 1.13264e-05 9.77292e-06 1.10827e-05 8.81471e-06 1.28159e-05 9.2967e-06 1.18137e-05 9.00937e-06 9.77292e-06 9.48687e-06 1.00709e-05 6.95564e-06 9.2967e-06 8.92197e-06 9.88089e-06 9.77292e-06 1.10827e-05 1.00709e-05 1.09432e-05 9.2967e-06 1.18137e-05 9.88089e-06 1.11742e-05 5.0144e-06 8.81471e-06 6.95564e-06 9.2967e-06 7.95757e-07 8.64868e-06 4.72875e-06 8.90674e-06 8.81471e-06 1.28159e-05 9.2967e-06 1.18137e-05 8.64868e-06 1.45543e-05 8.90674e-06 1.26846e-05 6.95564e-06 9.2967e-06 8.92197e-06 9.88089e-06 4.72875e-06 8.90674e-06 8.42632e-06 9.69583e-06 9.2967e-06 1.18137e-05 9.88089e-06 1.11742e-05 8.90674e-06 1.26846e-05 9.69583e-06 1.13993e-05 8.73122e-06 9.00937e-06 1.05491e-05 1.07024e-05 9.20839e-06 9.43472e-06 1.06588e-05 1.0875e-05 9.00937e-06 9.48687e-06 1.07024e-05 1.12474e-05 9.43472e-06 9.81456e-06 1.0875e-05 1.11627e-05 1.05491e-05 1.07024e-05 1.12422e-05 1.12503e-05 1.06588e-05 1.0875e-05 1.11686e-05 1.13119e-05 1.07024e-05 1.12474e-05 1.12503e-05 1.1388e-05 1.0875e-05 1.11627e-05 1.13119e-05 1.14714e-05 9.20839e-06 9.43472e-06 1.06588e-05 1.0875e-05 1.05206e-05 1.03336e-05 1.14483e-05 1.13407e-05 9.43472e-06 9.81456e-06 1.0875e-05 1.11627e-05 1.03336e-05 1.03961e-05 1.13407e-05 1.11979e-05 1.06588e-05 1.0875e-05 1.11686e-05 1.13119e-05 1.14483e-05 1.13407e-05 1.01817e-05 1.03462e-05 1.0875e-05 1.11627e-05 1.13119e-05 1.14714e-05 1.13407e-05 1.11979e-05 1.03462e-05 1.05245e-05 9.48687e-06 8.92197e-06 1.12474e-05 1.0925e-05 9.81456e-06 9.39569e-06 1.11627e-05 1.08963e-05 8.92197e-06 8.42632e-06 1.0925e-05 1.06831e-05 9.39569e-06 9.18949e-06 1.08963e-05 1.07924e-05 1.12474e-05 1.0925e-05 1.1388e-05 1.16843e-05 1.11627e-05 1.08963e-05 1.14714e-05 1.12814e-05 1.0925e-05 1.06831e-05 1.16843e-05 1.15437e-05 1.08963e-05 1.07924e-05 1.12814e-05 1.10436e-05 9.81456e-06 9.39569e-06 1.11627e-05 1.08963e-05 1.03961e-05 1.03145e-05 1.11979e-05 1.11866e-05 9.39569e-06 9.18949e-06 1.08963e-05 1.07924e-05 1.03145e-05 1.04085e-05 1.11866e-05 1.11475e-05 1.11627e-05 1.08963e-05 1.14714e-05 1.12814e-05 1.11979e-05 1.11866e-05 1.05245e-05 1.03527e-05 1.08963e-05 1.07924e-05 1.12814e-05 1.10436e-05 1.11866e-05 1.11475e-05 1.03527e-05 9.88226e-06 1.05206e-05 1.03336e-05 1.14483e-05 1.13407e-05 1.16151e-05 1.06684e-05 1.32193e-05 1.17701e-05 1.03336e-05 1.03961e-05 1.13407e-05 1.11979e-05 1.06684e-05 1.03145e-05 1.17701e-05 1.11866e-05 1.14483e-0