# vtk DataFile Version 3.0
#This file was generated by the deal.II library on 2025/4/17 at 14:13:01
ASCII
DATASET UNSTRUCTURED_GRID

POINTS 8192 double
-0.353031 8.08249e-05 -0.354382
-0.461452 -0.00162722 -0.298661
-0.528302 -0.0100211 -0.529653
-0.638834 -0.00985332 -0.424254
-0.413845 -0.11726 -0.300368
-0.507361 -0.105724 -0.258695
-0.590798 -0.165775 -0.432393
-0.676638 -0.144462 -0.356541
-0.461452 -0.00162722 -0.298661
-0.568408 6.86106e-05 -0.236319
-0.638834 -0.00985332 -0.424254
-0.743235 -0.00563279 -0.312074
-0.507361 -0.105724 -0.258695
-0.599865 -0.0913276 -0.21267
-0.676638 -0.144462 -0.356541
-0.75875 -0.120616 -0.277096
-0.528302 -0.0100211 -0.529653
-0.638834 -0.00985332 -0.424254
-0.706607 6.65904e-05 -0.707905
-0.821086 -0.00280938 -0.548834
-0.590798 -0.165775 -0.432393
-0.676638 -0.144462 -0.356541
-0.773361 -0.202611 -0.564066
-0.851224 -0.173999 -0.452052
-0.638834 -0.00985332 -0.424254
-0.743235 -0.00563279 -0.312074
-0.821086 -0.00280938 -0.548834
-0.923245 6.07088e-05 -0.383244
-0.676638 -0.144462 -0.356541
-0.75875 -0.120616 -0.277096
-0.851224 -0.173999 -0.452052
-0.922207 -0.142792 -0.337622
-0.413845 -0.11726 -0.300368
-0.507361 -0.105724 -0.258695
-0.590798 -0.165775 -0.432393
-0.676638 -0.144462 -0.356541
-0.470823 -0.235499 -0.236332
-0.550133 -0.211019 -0.211852
-0.644614 -0.319912 -0.320746
-0.708228 -0.278935 -0.279769
-0.507361 -0.105724 -0.258695
-0.599865 -0.0913276 -0.21267
-0.676638 -0.144462 -0.356541
-0.75875 -0.120616 -0.277096
-0.550133 -0.211019 -0.211852
-0.628753 -0.184116 -0.18479
-0.708228 -0.278935 -0.279769
-0.769728 -0.236452 -0.237126
-0.590798 -0.165775 -0.432393
-0.676638 -0.144462 -0.356541
-0.773361 -0.202611 -0.564066
-0.851224 -0.173999 -0.452052
-0.644614 -0.319912 -0.320746
-0.708228 -0.278935 -0.279769
-0.824455 -0.399368 -0.400144
-0.871035 -0.34262 -0.343396
-0.676638 -0.144462 -0.356541
-0.75875 -0.120616 -0.277096
-0.851224 -0.173999 -0.452052
-0.922207 -0.142792 -0.337622
-0.708228 -0.278935 -0.279769
-0.769728 -0.236452 -0.237126
-0.871035 -0.34262 -0.343396
-0.914227 -0.285264 -0.285885
-0.568408 6.86106e-05 -0.236319
-0.53618 -0.00237261 -0.116254
-0.743235 -0.00563279 -0.312074
-0.748661 -0.010385 -0.159367
-0.599865 -0.0913276 -0.21267
-0.569701 -0.105826 -0.1063
-0.75875 -0.120616 -0.277096
-0.756893 -0.142314 -0.142788
-0.53618 -0.00237261 -0.116254
-0.499273 8.15357e-05 -0.000169715
-0.748661 -0.010385 -0.159367
-0.744957 -0.00985975 -0.010111
-0.569701 -0.105826 -0.1063
-0.536154 -0.115769 -0.00261289
-0.756893 -0.142314 -0.142788
-0.748636 -0.158882 -0.0106253
-0.743235 -0.00563279 -0.312074
-0.748661 -0.010385 -0.159367
-0.923245 6.07088e-05 -0.383244
-0.968652 -0.00326041 -0.190989
-0.75875 -0.120616 -0.277096
-0.756893 -0.142314 -0.142788
-0.922207 -0.142792 -0.337622
-0.950491 -0.169842 -0.170261
-0.748661 -0.010385 -0.159367
-0.744957 -0.00985975 -0.010111
-0.968652 -0.00326041 -0.190989
-0.999183 8.52764e-05 -0.000146462
-0.756893 -0.142314 -0.142788
-0.748636 -0.158882 -0.0106253
-0.950491 -0.169842 -0.170261
-0.968584 -0.190555 -0.00347625
-0.599865 -0.0913276 -0.21267
-0.569701 -0.105826 -0.1063
-0.75875 -0.120616 -0.277096
-0.756893 -0.142314 -0.142788
-0.628753 -0.184116 -0.18479
-0.599781 -0.211874 -0.0917347
-0.769728 -0.236452 -0.237126
-0.758666 -0.2763 -0.121023
-0.569701 -0.105826 -0.1063
-0.536154 -0.115769 -0.00261289
-0.756893 -0.142314 -0.142788
-0.748636 -0.158882 -0.0106253
-0.599781 -0.211874 -0.0917347
-0.56831 -0.235493 -0.000141681
-0.758666 -0.2763 -0.121023
-0.743137 -0.311249 -0.00584308
-0.75875 -0.120616 -0.277096
-0.756893 -0.142314 -0.142788
-0.922207 -0.142792 -0.337622
-0.950491 -0.169842 -0.170261
-0.769728 -0.236452 -0.237126
-0.758666 -0.2763 -0.121023
-0.914227 -0.285264 -0.285885
-0.922089 -0.336872 -0.143147
-0.756893 -0.142314 -0.142788
-0.748636 -0.158882 -0.0106253
-0.950491 -0.169842 -0.170261
-0.968584 -0.190555 -0.00347625
-0.758666 -0.2763 -0.121023
-0.743137 -0.311249 -0.00584308
-0.922089 -0.336872 -0.143147
-0.923083 -0.382456 -0.000122207
-0.470823 -0.235499 -0.236332
-0.550133 -0.211019 -0.211852
-0.644614 -0.319912 -0.320746
-0.708228 -0.278935 -0.279769
-0.413759 -0.29922 -0.117748
-0.507276 -0.257547 -0.106213
-0.590712 -0.431245 -0.166264
-0.676553 -0.355393 -0.14495
-0.550133 -0.211019 -0.211852
-0.628753 -0.184116 -0.18479
-0.708228 -0.278935 -0.279769
-0.769728 -0.236452 -0.237126
-0.507276 -0.257547 -0.106213
-0.599781 -0.211874 -0.0917347
-0.676553 -0.355393 -0.14495
-0.758666 -0.2763 -0.121023
-0.644614 -0.319912 -0.320746
-0.708228 -0.278935 -0.279769
-0.824455 -0.399368 -0.400144
-0.871035 -0.34262 -0.343396
-0.590712 -0.431245 -0.166264
-0.676553 -0.355393 -0.14495
-0.773211 -0.562928 -0.203033
-0.851074 -0.450914 -0.174421
-0.708228 -0.278935 -0.279769
-0.769728 -0.236452 -0.237126
-0.871035 -0.34262 -0.343396
-0.914227 -0.285264 -0.285885
-0.676553 -0.355393 -0.14495
-0.758666 -0.2763 -0.121023
-0.851074 -0.450914 -0.174421
-0.922089 -0.336872 -0.143147
-0.413759 -0.29922 -0.117748
-0.507276 -0.257547 -0.106213
-0.590712 -0.431245 -0.166264
-0.676553 -0.355393 -0.14495
-0.35296 -0.353143 -0.00016143
-0.461382 -0.297421 -0.00186948
-0.528232 -0.528414 -0.0102634
-0.638764 -0.423015 -0.0100956
-0.507276 -0.257547 -0.106213
-0.599781 -0.211874 -0.0917347
-0.676553 -0.355393 -0.14495
-0.758666 -0.2763 -0.121023
-0.461382 -0.297421 -0.00186948
-0.56831 -0.235493 -0.000141681
-0.638764 -0.423015 -0.0100956
-0.743137 -0.311249 -0.00584308
-0.590712 -0.431245 -0.166264
-0.676553 -0.355393 -0.14495
-0.773211 -0.562928 -0.203033
-0.851074 -0.450914 -0.174421
-0.528232 -0.528414 -0.0102634
-0.638764 -0.423015 -0.0100956
-0.706445 -0.706643 -0.000141298
-0.820924 -0.547572 -0.00301727
-0.676553 -0.355393 -0.14495
-0.758666 -0.2763 -0.121023
-0.851074 -0.450914 -0.174421
-0.922089 -0.336872 -0.143147
-0.638764 -0.423015 -0.0100956
-0.743137 -0.311249 -0.00584308
-0.820924 -0.547572 -0.00301727
-0.923083 -0.382456 -0.000122207
-0.353031 8.08249e-05 -0.354382
-0.461452 -0.00162722 -0.298661
-0.413845 -0.11726 -0.300368
-0.507361 -0.105724 -0.258695
-0.173673 -0.014401 -0.174753
-0.353234 -0.0140732 -0.153009
-0.293949 -0.154775 -0.155494
-0.431544 -0.134042 -0.134761
-0.461452 -0.00162722 -0.298661
-0.568408 6.86106e-05 -0.236319
-0.507361 -0.105724 -0.258695
-0.599865 -0.0913276 -0.21267
-0.353234 -0.0140732 -0.153009
-0.53618 -0.00237261 -0.116254
-0.431544 -0.134042 -0.134761
-0.569701 -0.105826 -0.1063
-0.413845 -0.11726 -0.300368
-0.507361 -0.105724 -0.258695
-0.470823 -0.235499 -0.236332
-0.550133 -0.211019 -0.211852
-0.293949 -0.154775 -0.155494
-0.431544 -0.134042 -0.134761
-0.413759 -0.29922 -0.117748
-0.507276 -0.257547 -0.106213
-0.507361 -0.105724 -0.258695
-0.599865 -0.0913276 -0.21267
-0.550133 -0.211019 -0.211852
-0.628753 -0.184116 -0.18479
-0.431544 -0.134042 -0.134761
-0.569701 -0.105826 -0.1063
-0.507276 -0.257547 -0.106213
-0.599781 -0.211874 -0.0917347
-0.173673 -0.014401 -0.174753
-0.353234 -0.0140732 -0.153009
-0.293949 -0.154775 -0.155494
-0.431544 -0.134042 -0.134761
0.000355734 0.000121008 -0.000256218
-0.24344 -0.0125065 -0.0128837
-0.173778 -0.174013 -0.0147561
-0.353339 -0.152268 -0.0144283
-0.353234 -0.0140732 -0.153009
-0.53618 -0.00237261 -0.116254
-0.431544 -0.134042 -0.134761
-0.569701 -0.105826 -0.1063
-0.24344 -0.0125065 -0.0128837
-0.499273 8.15357e-05 -0.000169715
-0.353339 -0.152268 -0.0144283
-0.536154 -0.115769 -0.00261289
-0.293949 -0.154775 -0.155494
-0.431544 -0.134042 -0.134761
-0.413759 -0.29922 -0.117748
-0.507276 -0.257547 -0.106213
-0.173778 -0.174013 -0.0147561
-0.353339 -0.152268 -0.0144283
-0.35296 -0.353143 -0.00016143
-0.461382 -0.297421 -0.00186948
-0.431544 -0.134042 -0.134761
-0.569701 -0.105826 -0.1063
-0.507276 -0.257547 -0.106213
-0.599781 -0.211874 -0.0917347
-0.353339 -0.152268 -0.0144283
-0.536154 -0.115769 -0.00261289
-0.461382 -0.297421 -0.00186948
-0.56831 -0.235493 -0.000141681
0.353151 -3.13911e-05 0.354326
0.410781 0.11763 0.286091
0.537017 -0.0282092 0.538191
0.596361 0.137227 0.40313
0.459591 -0.00428252 0.291861
0.503179 0.102367 0.243793
0.641252 -0.0301473 0.418564
0.677857 0.118447 0.329946
0.410781 0.11763 0.286091
0.470929 0.235546 0.236269
0.596361 0.137227 0.40313
0.660572 0.31211 0.312804
0.503179 0.102367 0.243793
0.548104 0.208323 0.209043
0.677857 0.118447 0.329946
0.717138 0.269556 0.270261
0.537017 -0.0282092 0.538191
0.596361 0.137227 0.40313
0.706743 -2.0362e-05 0.707851
0.757441 0.193297 0.520435
0.641252 -0.0301473 0.418564
0.677857 0.118447 0.329946
0.807508 -0.0161678 0.545239
0.831219 0.161681 0.422483
0.596361 0.137227 0.40313
0.660572 0.31211 0.312804
0.757441 0.193297 0.520435
0.816048 0.408099 0.408704
0.677857 0.118447 0.329946
0.717138 0.269556 0.270261
0.831219 0.161681 0.422483
0.859457 0.346588 0.347211
0.459591 -0.00428252 0.291861
0.503179 0.102367 0.243793
0.641252 -0.0301473 0.418564
0.677857 0.118447 0.329946
0.568513 -3.09463e-05 0.236265
0.597976 0.0930642 0.206436
0.753384 -0.0138485 0.304747
0.766105 0.108308 0.259419
0.503179 0.102367 0.243793
0.548104 0.208323 0.209043
0.677857 0.118447 0.329946
0.717138 0.269556 0.270261
0.597976 0.0930642 0.206436
0.627997 0.185021 0.185593
0.766105 0.108308 0.259419
0.780309 0.2294 0.229969
0.641252 -0.0301473 0.418564
0.677857 0.118447 0.329946
0.807508 -0.0161678 0.545239
0.831219 0.161681 0.422483
0.753384 -0.0138485 0.304747
0.766105 0.108308 0.259419
0.923358 -2.64597e-05 0.383182
0.917002 0.143644 0.323266
0.677857 0.118447 0.329946
0.717138 0.269556 0.270261
0.831219 0.161681 0.422483
0.859457 0.346588 0.347211
0.766105 0.108308 0.259419
0.780309 0.2294 0.229969
0.917002 0.143644 0.323266
0.91339 0.2868 0.287296
0.470929 0.235546 0.236269
0.410665 0.285051 0.118006
0.660572 0.31211 0.312804
0.596246 0.402107 0.137591
0.548104 0.208323 0.209043
0.503063 0.242754 0.102742
0.717138 0.269556 0.270261
0.677741 0.328916 0.118816
0.410665 0.285051 0.118006
0.353035 0.353192 8.27554e-05
0.596246 0.402107 0.137591
[...]
POINT_DATA 8192
SCALARS M_0 double 1
LOOKUP_TABLE default
0.997596 1.00168 0.996087 1.00165 0.999685 1.0014 0.999911 1.00188 1.00168 1.00173 1.00165 1.00523 1.0014 1.00186 1.00188 1.00333 0.996087 1.00165 0.995284 1.00122 0.999911 1.00188 0.999899 1.00218 1.00165 1.00523 1.00122 1.0066 1.00188 1.00333 1.00218 1.00292 0.999685 1.0014 0.999911 1.00188 1.00274 1.00238 1.00448 1.00357 1.0014 1.00186 1.00188 1.00333 1.00238 1.00433 1.00357 1.00665 0.999911 1.00188 0.999899 1.00218 1.00448 1.00357 1.00251 1.00251 1.00188 1.00333 1.00218 1.00292 1.00357 1.00665 1.00251 1.00989 1.00173 1.00223 1.00523 1.0041 1.00186 1.00242 1.00333 1.00472 1.00223 1.00236 1.0041 1.00734 1.00242 1.00197 1.00472 1.00424 1.00523 1.0041 1.0066 1.00616 1.00333 1.00472 1.00292 1.00516 1.0041 1.00734 1.00616 1.0119 1.00472 1.00424 1.00516 1.01465 1.00186 1.00242 1.00333 1.00472 1.00433 1.00574 1.00665 1.0057 1.00242 1.00197 1.00472 1.00424 1.00574 1.0066 1.0057 1.00448 1.00333 1.00472 1.00292 1.00516 1.00665 1.0057 1.00989 1.01073 1.00472 1.00424 1.00516 1.01465 1.0057 1.00448 1.01073 1.00926 1.00274 1.00238 1.00448 1.00357 1.00164 1.00297 1.00482 1.00531 1.00238 1.00433 1.00357 1.00665 1.00297 1.00574 1.00531 1.0057 1.00448 1.00357 1.00251 1.00251 1.00482 1.00531 1.00737 1.00898 1.00357 1.00665 1.00251 1.00989 1.00531 1.0057 1.00898 1.01073 1.00164 1.00297 1.00482 1.00531 1.00467 1.00224 1.00593 1.00391 1.00297 1.00574 1.00531 1.0057 1.00224 1.0066 1.00391 1.00448 1.00482 1.00531 1.00737 1.00898 1.00593 1.00391 1.01301 1.00672 1.00531 1.0057 1.00898 1.01073 1.00391 1.00448 1.00672 1.00926 0.997596 1.00168 0.999685 1.0014 0.998795 1.00056 1.00055 1.00087 1.00168 1.00173 1.0014 1.00186 1.00056 1.00223 1.00087 1.00242 0.999685 1.0014 1.00274 1.00238 1.00055 1.00087 1.00164 1.00297 1.0014 1.00186 1.00238 1.00433 1.00087 1.00242 1.00297 1.00574 0.998795 1.00056 1.00055 1.00087 0.998656 0.999523 1.00007 1.00024 1.00056 1.00223 1.00087 1.00242 0.999523 1.00236 1.00024 1.00197 1.00055 1.00087 1.00164 1.00297 1.00007 1.00024 1.00467 1.00224 1.00087 1.00242 1.00297 1.00574 1.00024 1.00197 1.00224 1.0066 0.997374 1.00008 0.997312 1.00039 1.00062 1.00194 1.00121 1.00215 1.00008 1.00204 1.00039 1.00418 1.00194 1.00345 1.00215 1.00609 0.997312 1.00039 0.993883 1.00104 1.00121 1.00215 1.00098 1.00198 1.00039 1.00418 1.00104 1.00686 1.00215 1.00609 1.00198 1.00597 1.00062 1.00194 1.00121 1.00215 1.0005 1.00263 1.00331 1.00473 1.00194 1.00345 1.00215 1.00609 1.00263 1.00282 1.00473 1.00501 1.00121 1.00215 1.00098 1.00198 1.00331 1.00473 1.00902 1.0084 1.00215 1.00609 1.00198 1.00597 1.00473 1.00501 1.0084 1.00884 1.00204 1.00238 1.00418 1.00713 1.00345 1.00392 1.00609 1.00553 1.00238 1.00319 1.00713 1.00872 1.00392 1.00237 1.00553 1.00484 1.00418 1.00713 1.00686 1.00918 1.00609 1.00553 1.00597 1.01229 1.00713 1.00872 1.00918 1.01065 1.00553 1.00484 1.01229 1.00706 1.00345 1.00392 1.00609 1.00553 1.00282 1.00561 1.00501 1.00603 1.00392 1.00237 1.00553 1.00484 1.00561 1.00637 1.00603 1.00878 1.00609 1.00553 1.00597 1.01229 1.00501 1.00603 1.00884 1.0091 1.00553 1.00484 1.01229 1.00706 1.00603 1.00878 1.0091 1.00653 1.0005 1.00263 1.00331 1.00473 1.0017 1.00456 1.00455 1.00737 1.00263 1.00282 1.00473 1.00501 1.00456 1.00561 1.00737 1.00603 1.00331 1.00473 1.00902 1.0084 1.00455 1.00737 1.00987 1.00734 1.00473 1.00501 1.0084 1.00884 1.00737 1.00603 1.00734 1.0091 1.0017 1.00456 1.00455 1.00737 1.00307 1.00418 1.00454 1.00456 1.00456 1.00561 1.00737 1.00603 1.00418 1.00637 1.00456 1.00878 1.00455 1.00737 1.00987 1.00734 1.00454 1.00456 1.01504 1.01161 1.00737 1.00603 1.00734 1.0091 1.00456 1.00878 1.01161 1.00653 0.997374 1.00008 1.00062 1.00194 0.99899 1.00026 0.99986 1.00205 1.00008 1.00204 1.00194 1.00345 1.00026 1.00238 1.00205 1.00392 1.00062 1.00194 1.0005 1.00263 0.99986 1.00205 1.0017 1.00456 1.00194 1.00345 1.00263 1.00282 1.00205 1.00392 1.00456 1.00561 0.99899 1.00026 0.99986 1.00205 0.998656 1.0032 1.00122 0.999831 1.00026 1.00238 1.00205 1.00392 1.0032 1.00319 0.999831 1.00237 0.99986 1.00205 1.0017 1.00456 1.00122 0.999831 1.00307 1.00418 1.00205 1.00392 1.00456 1.00561 0.999831 1.00237 1.00418 1.00637 0.994372 0.993127 0.983051 0.989318 0.994099 0.991451 0.991068 0.984346 0.993127 0.993546 0.989318 0.989568 0.991451 0.991449 0.984346 0.988455 0.983051 0.989318 0.983264 0.969017 0.991068 0.984346 0.978874 0.982929 0.989318 0.989568 0.969017 0.985752 0.984346 0.988455 0.982929 0.97666 0.994099 0.991451 0.991068 0.984346 0.991121 0.991297 0.987082 0.988047 0.991451 0.991449 0.984346 0.988455 0.991297 0.994213 0.988047 0.99323 0.991068 0.984346 0.978874 0.982929 0.987082 0.988047 0.978496 0.984534 0.984346 0.988455 0.982929 0.97666 0.988047 0.99323 0.984534 0.978497 0.993546 0.99639 0.989568 0.994251 0.991449 0.99666 0.988455 0.988553 0.99639 0.998955 0.994251 0.99701 0.99666 0.995036 0.988553 0.992754 0.989568 0.994251 0.985752 0.990615 0.988455 0.988553 0.97666 0.989713 0.994251 0.99701 0.990615 0.9932 0.988553 0.992754 0.989713 0.992508 0.991449 0.99666 0.988455 0.988553 0.994213 0.995259 0.99323 0.987526 0.99666 0.995036 0.988553 0.992754 0.995259 0.996013 0.987526 0.993497 0.988455 0.988553 0.97666 0.989713 0.99323 0.987526 0.978497 0.984757 0.988553 0.992754 0.989713 0.992508 0.987526 0.993497 0.984757 0.989412 0.991121 0.991297 0.987082 0.988047 0.995995 0.993771 0.993581 0.993958 0.991297 0.994213 0.988047 0.99323 0.993771 0.995259 0.993958 0.987526 0.987082 0.988047 0.978496 0.984534 0.993581 0.993958 0.987466 0.988529 0.988047 0.99323 0.984534 0.978497 0.993958 0.987526 0.988529 0.984757 0.995995 0.993771 0.993581 0.993958 0.998345 0.996913 0.996186 0.995243 0.993771 0.995259 0.993958 0.987526 0.996913 0.996013 0.995243 0.993497 0.993581 0.993958 0.987466 0.988529 0.996186 0.995243 0.994472 0.991858 0.993958 0.987526 0.988529 0.984757 0.995243 0.993497 0.991858 0.989412 0.994372 0.993127 0.994099 0.991451 0.995617 0.996139 0.996025 0.993045 0.993127 0.993546 0.991451 0.991449 0.996139 0.99639 0.993045 0.99666 0.994099 0.991451 0.991121 0.991297 0.996025 0.993045 0.995995 0.993771 0.991451 0.991449 0.991297 0.994213 0.993045 0.99666 0.993771 0.995259 0.995617 0.996139 0.996025 0.993045 0.998656 0.995626 0.996946 0.997683 0.996139 0.99639 0.993045 0.99666 0.995626 0.998955 0.997683 0.995036 0.996025 0.993045 0.995995 0.993771 0.996946 0.997683 0.998345 0.996913 0.993045 0.99666 0.993771 0.995259 0.997683 0.995036 0.996913 0.996013 0.993521 0.993786 0.988224 0.985876 0.98994 0.99137 0.990355 0.988809 0.993786 0.996578 0.985876 0.990932 0.99137 0.990682 0.988809 0.993427 0.988224 0.985876 0.97324 0.984974 0.990355 0.988809 0.980395 0.977327 0.985876 0.990932 0.984974 0.984684 0.988809 0.993427 0.977327 0.98577 0.98994 0.99137 0.990355 0.988809 0.994352 0.991439 0.989354 0.987861 0.99137 0.990682 0.988809 0.993427 0.991439 0.989518 0.987861 0.985209 0.990355 0.988809 0.980395 0.977327 0.989354 0.987861 0.977671 0.98265 0.988809 0.993427 0.977327 0.98577 0.987861 0.985209 0.98265 0.984274 0.996578 0.996371 0.990932 0.991037 0.990682 0.994888 0.993427 0.990174 0.996371 0.997819 0.991037 0.996052 0.994888 0.99559 0.990174 0.993075 0.990932 0.991037 0.984684 0.988189 0.993427 0.990174 0.98577 0.985577 0.991037 0.996052 0.988189 0.995604 0.990174 0.993075 0.985577 0.989875 0.990682 0.994888 0.993427 0.990174 0.989518 0.996628 0.985209 0.988643 0.994888 0.99559 0.990174 0.993075 0.996628 0.99648 0.988643 0.99263 0.993427 0.990174 0.98577 0.985577 0.985209 0.988643 0.984274 0.990961 0.990174 0.993075 0.985577 0.989875 0.988643 0.99263 0.990961 0.993129 0.994352 0.991439 0.989354 0.987861 0.996839 0.993657 0.990062 0.991459 0.991439 0.989518 0.987861 0.985209 0.993657 0.996628 0.991459 0.988643 0.989354 0.987861 0.977671 0.98265 0.990062 0.991459 0.986269 0.982351 0.987861 0.985209 0.98265 0.984274 0.991459 0.988643 0.982351 0.990961 0.996839 0.993657 0.990062 0.991459 0.996808 0.996797 0.995128 0.992898 0.993657 0.996628 0.991459 0.988643 0.996797 0.99648 0.992898 0.99263 0.990062 0.991459 0.986269 0.982351 0.995128 0.992898 0.993919 0.992148 0.991459 0.988643 0.982351 0.990961 0.992898 0.99263 0.992148 0.993129 0.993521 0.993786 0.98994 0.99137 0.996807 0.997504 0.994697 0.99263 0.993786 0.996578 0.99137 0.990682 0.997504 0.996371 0.99263 0.994888 0.98994 0.99137 0.994352 0.991439 0.994697 0.99263 0.996839 0.993657 0.99137 0.990682 0.991439 0.989518 0.99263 0.994888 0.993657 0.996628 0.996807 0.997504 0.994697 0.99263 0.998656 0.99682 0.997775 0.995891 0.997504 0.996371 0.99263 0.994888 0.99682 0.997819 0.995891 0.99559 0.994697 0.99263 0.996839 0.993657 0.997775 0.995891 0.996808 0.996797 0.99263 0.994888 0.993657 0.996628 0.995891 0.99559 0.996797 0.99648 0.997757 1.00021 0.996206 1.00082 1.00068 1.00083 1.00139 1.00254 1.00021 1.00321 1.00082 1.00512 1.00083 1.00319 1.00254 1.00405 0.996206 1.00082 0.99709 1.00056 1.00139 1.00254 1.00085 1.00267 1.00082 1.00512 1.00056 1.00692 1.00254 1.00405 1.00267 1.00878 1.00068 1.00083 1.00139 1.00254 1.00159 1.00227 1.00407 1.00349 1.00083 1.00319 1.00254 1.00405 1.00227 1.00573 1.00349 1.00757 1.00139 1.00254 1.00085 1.00267 1.00407 1.00349 1.00465 1.00642 1.00254 1.00405 1.00267 1.00878 1.00349 1.00757 1.00642 1.00758 1.00321 1.00288 1.00512 1.00494 1.00319 1.00405 1.00405 1.00435 1.00288 1.00332 1.00494 1.0078 1.00405 1.00372 1.00435 1.00429 1.00512 1.00494 1.00692 1.00906 1.00405 1.00435 1.00878 1.01401 1.00494 1.0078 1.00906 1.01259 1.00435 1.00429 1.01401 1.01489 1.00319 1.00405 1.00405 1.00435 1.00573 1.0066 1.00757 1.00717 1.00405 1.00372 1.00435 1.00429 1.0066 1.00791 1.00717 1.00779 1.00405 1.00435 1.00878 1.01401 1.00757 1.00717 1.00758 1.0126 1.00435 1.00429 1.01401 1.01489 1.00717 1.00779 1.0126 1.00656 1.00159 1.00227 1.00407 1.00349 1.00102 1.00445 1.00595 1.00342 1.00227 1.00573 1.00349 1.00757 1.00445 1.0066 1.00342 1.00717 1.00407 1.00349 1.00465 1.00642 1.00595 1.00342 1.00771 1.00898 1.00349 1.00757 1.00642 1.00758 1.00342 1.00717 1.00898 1.0126 1.00102 1.00445 1.00595 1.00342 1.00311 1.00244 1.00738 1.00678 1.00445 1.0066 1.00342 1.00717 1.00244 1.00791 1.00678 1.00779 1.00595 1.00342 1.00771 1.00898 1.00738 1.00678 1.01141 1.01038 1.00342 1.00717 1.00898 1.0126 1.00678 1.00779 1.01038 1.00656 0.997757 1.00021 1.00068 1.00083 0.997851 1.0004 0.999709 1.00105 1.00021 1.00321 1.00083 1.00319 1.0004 1.00288 1.00105 1.00405 1.00068 1.00083 1.00159 1.00227 0.999709 1.00105 1.00102 1.00445 1.00083 1.00319 1.00227 1.00573 1.00105 1.00405 1.00445 1.0066 0.997851 1.0004 0.999709 1.00105 0.998656 1.00164 0.999691 1.00005 1.0004 1.00288 1.00105 1.00405 1.00164 1.00332 1.00005 1.00372 0.999709 1.00105 1.00102 1.00445 0.999691 1.00005 1.00311 1.00244 1.00105 1.00405 1.00445 1.0066 1.00005 1.00372 1.00244 1.00791 1.00254 1.00243 1.00683 1.00694 1.00287 1.00473 1.0061 1.00554 1.00243 1.00145 1.00694 1.0033 1.00473 1.00368 1.00554 1.00498 1.00683 1.00694 1.00817 1.01088 1.0061 1.00554 1.01112 1.00954 1.00694 1.0033 1.01088 1.00453 1.00554 1.00498 1.00954 1.0058 1.00287 1.00473 1.0061 1.00554 1.00646 1.00713 1.00847 1.00865 1.00473 1.00368 1.00554 1.00498 1.00713 1.00483 1.00865 1.00598 1.0061 1.00554 1.01112 1.00954 1.00847 1.00865 1.01199 1.01116 1.00554 1.00498 1.00954 1.0058 1.00865 1.00598 1.01116 1.00672 1.00145 0.999329 1.0033 1.00012 1.00368 1.00156 1.00498 1.00401 0.999329 0.997103 1.00012 0.998262 1.00156 1.00019 1.00401 1.00195 1.0033 1.00012 1.00453 0.999831 1.00498 1.00401 1.0058 1.00464 1.00012 0.998262 0.999831 0.993265 1.00401 1.00195 1.00464 1.00151 1.00368 1.00156 1.00498 1.00401 1.00483 1.0011 1.00598 1.00516 1.00156 1.00019 1.00401 1.00195 1.0011 1.00109 1.00516 1.00354 1.00498 1.00401 1.0058 1.00464 1.00598 1.00516 1.00672 1.00458 1.00401 1.00195 1.00464 1.00151 1.00516 1.00354 1.00458 1.00568 1.00646 1.00713 1.00847 1.00865 1.00598 1.00524 1.00853 1.00545 1.00713 1.00483 1.00865 1.00598 1.00524 1.0011 1.00545 1.00516 1.00847 1.00865 1.01199 1.01116 1.00853 1.00545 1.01333 1.0067 1.00865 1.00598 1.01116 1.00672 1.00545 1.00516 1.0067 1.00458 1.00598 1.00524 1.00853 1.00545 1.00277 1.00344 1.00545 1.0055 1.00524 1.0011 1.00545 1.00516 1.00344 1.00109 1.0055 1.00354 1.00853 1.00545 1.01333 1.0067 1.00545 1.0055 1.01413 1.00821 1.00545 1.00516 1.0067 1.00458 1.0055 1.00354 1.00821 1.00568 1.00254 1.00243 1.00287 1.00473 1.00165 1.00064 1.00342 1.0034 1.00243 1.00145 1.00473 1.00368 1.00064 0.999329 1.0034 1.00156 1.00287 1.00473 1.00646 1.00713 1.00342 1.0034 1.00598 1.00524 1.00473 1.00368 1.00713 1.00483 1.0034 1.00156 1.00524 1.0011 1.00165 1.00064 1.00342 1.0034 0.998656 0.999783 1.00358 1.00154 1.00064 0.999329 1.0034 1.00156 0.999783 0.997103 1.00154 1.00019 1.00342 1.0034 1.00598 1.00524 1.00358 1.00154 1.00277 1.00344 1.0034 1.00156 1.00524 1.0011 1.00154 1.00019 1.00344 1.00109 1.00254 1.00287 1.00683 1.0061 1.00141 1.00003 1.00653 1.00418 1.00287 1.00646 1.0061 1.00847 1.00003 1.0054 1.00418 1.00761 1.00683 1.0061 1.00817 1.01112 1.00653 1.00418 1.00621 1.0048 1.0061 1.00847 1.01112 1.01199 1.00418 1.00761 1.0048 1.00322 1.00141 1.00003 1.00653 1.00418 1.0013 1.00191 1.00388 1.00593 1.00003 1.0054 1.00418 1.00761 1.00191 1.00441 1.00593 1.00793 1.00653 1.00418 1.00621 1.0048 1.00388 1.00593 1.00514 1.00746 1.00418 1.00761 1.0048 1.00322 1.00593 1.00793 1.00746 1.0082 1.00646 1.00598 1.00847 1.00853 1.0054 1.00296 1.00761 1.00479 1.00598 1.00277 1.00853 1.00545 1.00296 1.0035 1.00479 1.00694 1.00847 1.00853 1.01199 1.01333 1.00761 1.00479 1.00322 1.01061 1.00853 1.00545 1.01333 1.01413 1.00479 1.00694 1.01061 1.01163 1.0054 1.00296 1.00761 1.00479 1.00441 1.00235 1.00793 1.00566 1.00296 1.0035 1.00479 1.00694 1.00235 1.00046 1.00566 1.00309 1.00761 1.00479 1.00322 1.01061 1.00793 1.00566 1.0082 1.01169 1.00479 1.00694 1.01061 1.01163 1.00566 1.00309 1.01169 1.00425 1.0013 1.00191 1.00388 1.00593 0.998977 1.00137 0.999192 1.00286 1.00191 1.00441 1.00593 1.00793 1.00137 1.00235 1.00286 1.00566 1.00388 1.00593 1.00514 1.00746 0.999192 1.00286 0.999757 1.00428 1.00593 1.00793 1.00746 1.0082 1.00286 1.00566 1.00428 1.01169 0.998977 1.00137 0.999192 1.00286 0.998345 0.998983 0.996186 0.999784 1.00137 1.00235 1.00286 1.00566 0.998983 1.00046 0.999784 1.00309 0.999192 1.00286 0.999757 1.00428 0.996186 0.999784 0.994472 0.999971 1.00286 1.00566 1.00428 1.01169 0.999784 1.00309 0.999971 1.00425 1.00254 1.00287 1.00141 1.00003 1.00165 1.00342 0.999718 1.00232 1.00287 1.00646 1.00003 1.0054 1.00342 1.00598 1.00232 1.00296 1.00141 1.00003 1.0013 1.00191 0.999718 1.00232 0.998977 1.00137 1.00003 1.0054 1.00191 1.00441 1.00232 1.00296 1.00137 1.00235 1.00165 1.00342 0.999718 1.00232 0.998656 1.00358 0.996946 0.998976 1.00342 1.00598 1.00232 1.00296 1.00358 1.00277 0.998976 1.0035 0.999718 1.00232 0.998977 1.00137 0.996946 0.998976 0.998345 0.998983 1.00232 1.00296 1.00137 1.00235 0.998976 1.0035 0.998983 1.00046 0.997374 1.00062 0.997312 1.00121 1.00084 1.002 1.00103 1.00314 1.00062 1.0005 1.00121 1.00331 1.002 1.00416 1.00314 1.00554 0.997312 1.00121 0.993883 1.00098 1.00103 1.00314 0.999864 1.00308 1.00121 1.00331 1.00098 1.00902 1.00314 1.00554 1.00308 1.0045 1.00084 1.002 1.00103 1.00314 1.00199 1.00174 1.00382 1.00491 1.002 1.00416 1.00314 1.00554 1.00174 1.0043 1.00491 1.00651 1.00103 1.00314 0.999864 1.00308 1.00382 1.00491 1.00266 1.00711 1.00314 1.00554 1.00308 1.0045 1.00491 1.00651 1.00711 1.01297 1.0005 1.0017 1.00331 1.00455 1.00416 1.00232 1.00554 1.00788 1.0017 1.00307 1.00455 1.00454 1.00232 1.0041 1.00788 1.00502 1.00331 1.00455 1.00902 1.00987 1.00554 1.00788 1.0045 1.014 1.00455 1.00454 1.00987 1.01504 1.00788 1.00502 1.014 1.00839 1.00416 1.00232 1.00554 1.00788 1.0043 1.00361 1.00651 1.00441 1.00232 1.0041 1.00788 1.00502 1.00361 1.0041 1.00441 1.00685 1.00554 1.00788 1.0045 1.014 1.00651 1.00441 1.01297 1.01118 1.00788 1.00502 1.014 1.00839 1.00441 1.00685 1.01118 1.00753 1.00199 1.00174 1.00382 1.00491 1.00317 1.00433 1.00421 1.00492 1.00174 1.0043 1.00491 1.00651 1.00433 1.00361 1.00492 1.00441 1.00382 1.00491 1.00266 1.00711 1.00421 1.00492 1.0115 1.00767 1.00491 1.00651 1.00711 1.01297 1.00492 1.00441 1.00767 1.01118 1.00317 1.00433 1.00421 1.00492 1.00332 1.00525 1.0078 1.00781 1.00433 1.00361 1.00492 1.00441 1.00525 1.0041 1.00781 1.00685 1.00421 1.00492 1.0115 1.00767 1.0078 1.00781 1.01259 1.01293 1.00492 1.00441 1.00767 1.01118 1.00781 1.00685 1.01293 1.00753 0.997374 1.00062 1.00084 1.002 0.99899 0.99986 1.00169 1.00253 1.00062 1.0005 1.002 1.00416 0.99986 1.0017 1.00253 1.00232 1.00084 1.002 1.00199 1.00174 1.00169 1.00253 1.00317 1.00433 1.002 1.00416 1.00174 1.0043 1.00253 1.00232 1.00433 1.00361 0.99899 0.99986 1.00169 1.00253 0.998656 1.00122 1.00164 1.00323 0.99986 1.0017 1.00253 1.00232 1.00122 1.00307 1.00323 1.0041 1.00169 1.00253 1.00317 1.00433 1.00164 1.00323 1.00332 1.00525 1.00253 1.00232 1.00433 1.00361 1.00323 1.0041 1.00525 1.0041 0.997103 0.999831 0.998262 1.00025 1.00019 1.00078 1.00195 1.0036 0.999831 1.00219 1.00025 1.00329 1.00078 1.00013 1.0036 1.00356 0.998262 1.00025 0.993265 0.999828 1.00195 1.0036 1.00151 1.00176 1.00025 1.00329 0.999828 1.00131 1.0036 1.00356 1.00176 1.00059 1.00019 1.00078 1.00195 1.0036 1.00109 1.00017 1.00354 1.00196 1.00078 1.00013 1.0036 1.00356 1.00017 0.99993 1.00196 1.00421 1.00195 1.0036 1.00151 1.00176 1.00354 1.00196 1.00568 1.00546 1.0036 1.00356 1.00176 1.00059 1.00196 1.00421 1.00546 1.0085 1.00319 1.00692 1.00872 1.00767 1.00237 1.00354 1.00502 1.00769 1.00692 1.00746 1.00767 1.0107 1.00354 1.00657 1.00769 1.00798 1.00872 1.00767 1.01065 1.01131 1.00502 1.00769 1.00797 1.01231 1.00767 1.0107 1.01131 1.01235 1.00769 1.00798 1.01231 1.01112 1.00237 1.00354 1.00502 1.00769 1.00219 1.00013 1.00329 1.00356 1.00354 1.00657 1.00769 1.00798 1.00013 0.99993 1.00356 1.00421 1.00502 1.00769 1.00797 1.01231 1.00329 1.00356 1.00131 1.00059 1.00769 1.00798 1.01231 1.01112 1.00356 1.00421 1.00059 1.0085 1.00277 1.00344 1.00545 1.0055 1.00542 1.00419 1.00729 1.00568 1.00344 1.00109 1.0055 1.00354 1.00419 1.00017 1.00568 1.00196 1.00545 1.0055 1.01413 1.00821 1.00729 1.00568 1.0083 1.01096 1.0055 1.00354 1.00821 1.00568 1.00568 1.00196 1.01096 1.00546 1.00542 1.00419 1.00729 1.00568 1.00746 1.00657 1.0107 1.00798 1.00419 1.00017 1.00568 1.00196 1.00657 0.99993 1.00798 1.00421 1.00729 1.00568 1.0083 1.01096 1.0107 1.00798 1.01235 1.01112 1.00568 1.00196 1.01096 1.00546 1.00798 1.00421 1.01112 1.0085 0.998656 0.999783 1.00358 1.00154 1.0032 1.00042 1.00564 1.00255 0.999783 0.997103 1.00154 1.00019 1.00042 0.999831 1.00255 1.00078 1.00358 1.00154 1.00277 1.00344 1.00564 1.00255 1.00542 1.00419 1.00154 1.00019 1.00344 1.00109 1.00255 1.00078 1.00419 1.00017 1.0032 1.00042 1.00564 1.00255 1.00319 1.00237 1.00692 1.00354 1.00042 0.999831 1.00255 1.00078 1.00237 1.00219 1.00354 1.00013 1.00564 1.00255 1.00542 1.00419 1.00692 1.00354 1.00746 1.00657 1.00255 1.00078 1.00419 1.00017 1.00354 1.00013 1.00657 0.99993 1.00256 1.00141 1.00412 1.00543 1.00071 1.00315 1.00095 1.00456 1.00141 1.00358 1.00543 1.0064 1.00315 1.00428 1.00456 1.0053 1.00412 1.00543 1.00652 1.00781 1.00095 1.00456 1.00082 1.00488 1.00543 1.0064 1.00781 1.00429 1.00456 1.0053 1.00488 1.00833 1.00071 1.00315 1.00095 1.00456 0.997596 1.00168 0.996087 1.00165 1.00315 1.00428 1.00456 1.0053 1.00168 1.00173 1.00165 1.00523 1.00095 1.00456 1.00082 1.00488 0.996087 1.00165 0.995284 1.00122 1.00456 1.0053 1.00488 1.00833 1.00165 1.00523 1.00122 1.0066 1.00256 1.00345 1.00412 1.00469 1.00141 1.00283 1.00543 1.00622 1.00345 1.00254 1.00469 1.00683 1.00283 1.00165 1.00622 1.00665 1.00412 1.00469 1.00652 1.01532 1.00543 1.00622 1.00781 1.00468 1.00469 1.00683 1.01532 1.00817 1.00622 1.00665 1.00468 1.00688 1.00141 1.00283 1.00543 1.00622 1.00358 1.00378 1.0064 1.00616 1.00283 1.00165 1.00622 1.00665 1.00378 1.00465 1.00616 1.00558 1.00543 1.00622 1.00781 1.00468 1.0064 1.00616 1.00429 1.00966 1.00622 1.00665 1.00468 1.00688 1.00616 1.00558 1.00966 1.01163 1.00358 1.00378 1.0064 1.00616 1.00428 1.00445 1.0053 1.00763 1.00378 1.00465 1.00616 1.00558 1.00445 1.00392 1.00763 1.00