# vtk DataFile Version 3.0
#This file was generated by the deal.II library on 2025/4/16 at 17:55:45
ASCII
DATASET UNSTRUCTURED_GRID

POINTS 8192 double
-0.353031 8.08249e-05 -0.354382
-0.461452 -0.00162722 -0.298661
-0.528302 -0.0100211 -0.529653
-0.638834 -0.00985332 -0.424254
-0.413845 -0.11726 -0.300368
-0.507361 -0.105724 -0.258695
-0.590798 -0.165775 -0.432393
-0.676638 -0.144462 -0.356541
-0.461452 -0.00162722 -0.298661
-0.568408 6.86106e-05 -0.236319
-0.638834 -0.00985332 -0.424254
-0.743235 -0.00563279 -0.312074
-0.507361 -0.105724 -0.258695
-0.599865 -0.0913276 -0.21267
-0.676638 -0.144462 -0.356541
-0.75875 -0.120616 -0.277096
-0.528302 -0.0100211 -0.529653
-0.638834 -0.00985332 -0.424254
-0.706607 6.65904e-05 -0.707905
-0.821086 -0.00280938 -0.548834
-0.590798 -0.165775 -0.432393
-0.676638 -0.144462 -0.356541
-0.773361 -0.202611 -0.564066
-0.851224 -0.173999 -0.452052
-0.638834 -0.00985332 -0.424254
-0.743235 -0.00563279 -0.312074
-0.821086 -0.00280938 -0.548834
-0.923245 6.07088e-05 -0.383244
-0.676638 -0.144462 -0.356541
-0.75875 -0.120616 -0.277096
-0.851224 -0.173999 -0.452052
-0.922207 -0.142792 -0.337622
-0.413845 -0.11726 -0.300368
-0.507361 -0.105724 -0.258695
-0.590798 -0.165775 -0.432393
-0.676638 -0.144462 -0.356541
-0.470823 -0.235499 -0.236332
-0.550133 -0.211019 -0.211852
-0.644614 -0.319912 -0.320746
-0.708228 -0.278935 -0.279769
-0.507361 -0.105724 -0.258695
-0.599865 -0.0913276 -0.21267
-0.676638 -0.144462 -0.356541
-0.75875 -0.120616 -0.277096
-0.550133 -0.211019 -0.211852
-0.628753 -0.184116 -0.18479
-0.708228 -0.278935 -0.279769
-0.769728 -0.236452 -0.237126
-0.590798 -0.165775 -0.432393
-0.676638 -0.144462 -0.356541
-0.773361 -0.202611 -0.564066
-0.851224 -0.173999 -0.452052
-0.644614 -0.319912 -0.320746
-0.708228 -0.278935 -0.279769
-0.824455 -0.399368 -0.400144
-0.871035 -0.34262 -0.343396
-0.676638 -0.144462 -0.356541
-0.75875 -0.120616 -0.277096
-0.851224 -0.173999 -0.452052
-0.922207 -0.142792 -0.337622
-0.708228 -0.278935 -0.279769
-0.769728 -0.236452 -0.237126
-0.871035 -0.34262 -0.343396
-0.914227 -0.285264 -0.285885
-0.568408 6.86106e-05 -0.236319
-0.53618 -0.00237261 -0.116254
-0.743235 -0.00563279 -0.312074
-0.748661 -0.010385 -0.159367
-0.599865 -0.0913276 -0.21267
-0.569701 -0.105826 -0.1063
-0.75875 -0.120616 -0.277096
-0.756893 -0.142314 -0.142788
-0.53618 -0.00237261 -0.116254
-0.499273 8.15357e-05 -0.000169715
-0.748661 -0.010385 -0.159367
-0.744957 -0.00985975 -0.010111
-0.569701 -0.105826 -0.1063
-0.536154 -0.115769 -0.00261289
-0.756893 -0.142314 -0.142788
-0.748636 -0.158882 -0.0106253
-0.743235 -0.00563279 -0.312074
-0.748661 -0.010385 -0.159367
-0.923245 6.07088e-05 -0.383244
-0.968652 -0.00326041 -0.190989
-0.75875 -0.120616 -0.277096
-0.756893 -0.142314 -0.142788
-0.922207 -0.142792 -0.337622
-0.950491 -0.169842 -0.170261
-0.748661 -0.010385 -0.159367
-0.744957 -0.00985975 -0.010111
-0.968652 -0.00326041 -0.190989
-0.999183 8.52764e-05 -0.000146462
-0.756893 -0.142314 -0.142788
-0.748636 -0.158882 -0.0106253
-0.950491 -0.169842 -0.170261
-0.968584 -0.190555 -0.00347625
-0.599865 -0.0913276 -0.21267
-0.569701 -0.105826 -0.1063
-0.75875 -0.120616 -0.277096
-0.756893 -0.142314 -0.142788
-0.628753 -0.184116 -0.18479
-0.599781 -0.211874 -0.0917347
-0.769728 -0.236452 -0.237126
-0.758666 -0.2763 -0.121023
-0.569701 -0.105826 -0.1063
-0.536154 -0.115769 -0.00261289
-0.756893 -0.142314 -0.142788
-0.748636 -0.158882 -0.0106253
-0.599781 -0.211874 -0.0917347
-0.56831 -0.235493 -0.000141681
-0.758666 -0.2763 -0.121023
-0.743137 -0.311249 -0.00584308
-0.75875 -0.120616 -0.277096
-0.756893 -0.142314 -0.142788
-0.922207 -0.142792 -0.337622
-0.950491 -0.169842 -0.170261
-0.769728 -0.236452 -0.237126
-0.758666 -0.2763 -0.121023
-0.914227 -0.285264 -0.285885
-0.922089 -0.336872 -0.143147
-0.756893 -0.142314 -0.142788
-0.748636 -0.158882 -0.0106253
-0.950491 -0.169842 -0.170261
-0.968584 -0.190555 -0.00347625
-0.758666 -0.2763 -0.121023
-0.743137 -0.311249 -0.00584308
-0.922089 -0.336872 -0.143147
-0.923083 -0.382456 -0.000122207
-0.470823 -0.235499 -0.236332
-0.550133 -0.211019 -0.211852
-0.644614 -0.319912 -0.320746
-0.708228 -0.278935 -0.279769
-0.413759 -0.29922 -0.117748
-0.507276 -0.257547 -0.106213
-0.590712 -0.431245 -0.166264
-0.676553 -0.355393 -0.14495
-0.550133 -0.211019 -0.211852
-0.628753 -0.184116 -0.18479
-0.708228 -0.278935 -0.279769
-0.769728 -0.236452 -0.237126
-0.507276 -0.257547 -0.106213
-0.599781 -0.211874 -0.0917347
-0.676553 -0.355393 -0.14495
-0.758666 -0.2763 -0.121023
-0.644614 -0.319912 -0.320746
-0.708228 -0.278935 -0.279769
-0.824455 -0.399368 -0.400144
-0.871035 -0.34262 -0.343396
-0.590712 -0.431245 -0.166264
-0.676553 -0.355393 -0.14495
-0.773211 -0.562928 -0.203033
-0.851074 -0.450914 -0.174421
-0.708228 -0.278935 -0.279769
-0.769728 -0.236452 -0.237126
-0.871035 -0.34262 -0.343396
-0.914227 -0.285264 -0.285885
-0.676553 -0.355393 -0.14495
-0.758666 -0.2763 -0.121023
-0.851074 -0.450914 -0.174421
-0.922089 -0.336872 -0.143147
-0.413759 -0.29922 -0.117748
-0.507276 -0.257547 -0.106213
-0.590712 -0.431245 -0.166264
-0.676553 -0.355393 -0.14495
-0.35296 -0.353143 -0.00016143
-0.461382 -0.297421 -0.00186948
-0.528232 -0.528414 -0.0102634
-0.638764 -0.423015 -0.0100956
-0.507276 -0.257547 -0.106213
-0.599781 -0.211874 -0.0917347
-0.676553 -0.355393 -0.14495
-0.758666 -0.2763 -0.121023
-0.461382 -0.297421 -0.00186948
-0.56831 -0.235493 -0.000141681
-0.638764 -0.423015 -0.0100956
-0.743137 -0.311249 -0.00584308
-0.590712 -0.431245 -0.166264
-0.676553 -0.355393 -0.14495
-0.773211 -0.562928 -0.203033
-0.851074 -0.450914 -0.174421
-0.528232 -0.528414 -0.0102634
-0.638764 -0.423015 -0.0100956
-0.706445 -0.706643 -0.000141298
-0.820924 -0.547572 -0.00301727
-0.676553 -0.355393 -0.14495
-0.758666 -0.2763 -0.121023
-0.851074 -0.450914 -0.174421
-0.922089 -0.336872 -0.143147
-0.638764 -0.423015 -0.0100956
-0.743137 -0.311249 -0.00584308
-0.820924 -0.547572 -0.00301727
-0.923083 -0.382456 -0.000122207
-0.353031 8.08249e-05 -0.354382
-0.461452 -0.00162722 -0.298661
-0.413845 -0.11726 -0.300368
-0.507361 -0.105724 -0.258695
-0.173673 -0.014401 -0.174753
-0.353234 -0.0140732 -0.153009
-0.293949 -0.154775 -0.155494
-0.431544 -0.134042 -0.134761
-0.461452 -0.00162722 -0.298661
-0.568408 6.86106e-05 -0.236319
-0.507361 -0.105724 -0.258695
-0.599865 -0.0913276 -0.21267
-0.353234 -0.0140732 -0.153009
-0.53618 -0.00237261 -0.116254
-0.431544 -0.134042 -0.134761
-0.569701 -0.105826 -0.1063
-0.413845 -0.11726 -0.300368
-0.507361 -0.105724 -0.258695
-0.470823 -0.235499 -0.236332
-0.550133 -0.211019 -0.211852
-0.293949 -0.154775 -0.155494
-0.431544 -0.134042 -0.134761
-0.413759 -0.29922 -0.117748
-0.507276 -0.257547 -0.106213
-0.507361 -0.105724 -0.258695
-0.599865 -0.0913276 -0.21267
-0.550133 -0.211019 -0.211852
-0.628753 -0.184116 -0.18479
-0.431544 -0.134042 -0.134761
-0.569701 -0.105826 -0.1063
-0.507276 -0.257547 -0.106213
-0.599781 -0.211874 -0.0917347
-0.173673 -0.014401 -0.174753
-0.353234 -0.0140732 -0.153009
-0.293949 -0.154775 -0.155494
-0.431544 -0.134042 -0.134761
0.000355734 0.000121008 -0.000256218
-0.24344 -0.0125065 -0.0128837
-0.173778 -0.174013 -0.0147561
-0.353339 -0.152268 -0.0144283
-0.353234 -0.0140732 -0.153009
-0.53618 -0.00237261 -0.116254
-0.431544 -0.134042 -0.134761
-0.569701 -0.105826 -0.1063
-0.24344 -0.0125065 -0.0128837
-0.499273 8.15357e-05 -0.000169715
-0.353339 -0.152268 -0.0144283
-0.536154 -0.115769 -0.00261289
-0.293949 -0.154775 -0.155494
-0.431544 -0.134042 -0.134761
-0.413759 -0.29922 -0.117748
-0.507276 -0.257547 -0.106213
-0.173778 -0.174013 -0.0147561
-0.353339 -0.152268 -0.0144283
-0.35296 -0.353143 -0.00016143
-0.461382 -0.297421 -0.00186948
-0.431544 -0.134042 -0.134761
-0.569701 -0.105826 -0.1063
-0.507276 -0.257547 -0.106213
-0.599781 -0.211874 -0.0917347
-0.353339 -0.152268 -0.0144283
-0.536154 -0.115769 -0.00261289
-0.461382 -0.297421 -0.00186948
-0.56831 -0.235493 -0.000141681
0.353151 -3.13911e-05 0.354326
0.410781 0.11763 0.286091
0.537017 -0.0282092 0.538191
0.596361 0.137227 0.40313
0.459591 -0.00428252 0.291861
0.503179 0.102367 0.243793
0.641252 -0.0301473 0.418564
0.677857 0.118447 0.329946
0.410781 0.11763 0.286091
0.470929 0.235546 0.236269
0.596361 0.137227 0.40313
0.660572 0.31211 0.312804
0.503179 0.102367 0.243793
0.548104 0.208323 0.209043
0.677857 0.118447 0.329946
0.717138 0.269556 0.270261
0.537017 -0.0282092 0.538191
0.596361 0.137227 0.40313
0.706743 -2.0362e-05 0.707851
0.757441 0.193297 0.520435
0.641252 -0.0301473 0.418564
0.677857 0.118447 0.329946
0.807508 -0.0161678 0.545239
0.831219 0.161681 0.422483
0.596361 0.137227 0.40313
0.660572 0.31211 0.312804
0.757441 0.193297 0.520435
0.816048 0.408099 0.408704
0.677857 0.118447 0.329946
0.717138 0.269556 0.270261
0.831219 0.161681 0.422483
0.859457 0.346588 0.347211
0.459591 -0.00428252 0.291861
0.503179 0.102367 0.243793
0.641252 -0.0301473 0.418564
0.677857 0.118447 0.329946
0.568513 -3.09463e-05 0.236265
0.597976 0.0930642 0.206436
0.753384 -0.0138485 0.304747
0.766105 0.108308 0.259419
0.503179 0.102367 0.243793
0.548104 0.208323 0.209043
0.677857 0.118447 0.329946
0.717138 0.269556 0.270261
0.597976 0.0930642 0.206436
0.627997 0.185021 0.185593
0.766105 0.108308 0.259419
0.780309 0.2294 0.229969
0.641252 -0.0301473 0.418564
0.677857 0.118447 0.329946
0.807508 -0.0161678 0.545239
0.831219 0.161681 0.422483
0.753384 -0.0138485 0.304747
0.766105 0.108308 0.259419
0.923358 -2.64597e-05 0.383182
0.917002 0.143644 0.323266
0.677857 0.118447 0.329946
0.717138 0.269556 0.270261
0.831219 0.161681 0.422483
0.859457 0.346588 0.347211
0.766105 0.108308 0.259419
0.780309 0.2294 0.229969
0.917002 0.143644 0.323266
0.91339 0.2868 0.287296
0.470929 0.235546 0.236269
0.410665 0.285051 0.118006
0.660572 0.31211 0.312804
0.596246 0.402107 0.137591
0.548104 0.208323 0.209043
0.503063 0.242754 0.102742
0.717138 0.269556 0.270261
0.677741 0.328916 0.118816
0.410665 0.285051 0.118006
0.353035 0.353192 8.27554e-05
0.596246 0.402107 0.137591
[...]
POINT_DATA 8192
SCALARS A_0 double 1
LOOKUP_TABLE default
1.00079 1.00062 1.00285 1.00027 0.999523 0.997292 0.999821 0.996046 1.00062 0.997037 1.00027 0.994659 0.997292 0.994276 0.996046 0.9934 1.00285 1.00027 1.00568 1.00019 0.999821 0.996046 0.99978 0.995337 1.00027 0.994659 1.00019 0.996036 0.996046 0.9934 0.995337 0.992104 0.999523 0.997292 0.999821 0.996046 0.998405 0.996501 0.996729 0.995634 0.997292 0.994276 0.996046 0.9934 0.996501 0.995525 0.995634 0.993836 0.999821 0.996046 0.99978 0.995337 0.996729 0.995634 0.995846 0.992793 0.996046 0.9934 0.995337 0.992104 0.995634 0.993836 0.992793 0.992181 0.997037 0.996154 0.994659 0.993444 0.994276 0.994251 0.9934 0.99223 0.996154 0.996758 0.993444 0.991613 0.994251 0.994243 0.99223 0.991093 0.994659 0.993444 0.996036 0.991769 0.9934 0.99223 0.992104 0.988174 0.993444 0.991613 0.991769 0.989072 0.99223 0.991093 0.988174 0.989265 0.994276 0.994251 0.9934 0.99223 0.995525 0.995853 0.993836 0.993067 0.994251 0.994243 0.99223 0.991093 0.995853 0.994756 0.993067 0.992262 0.9934 0.99223 0.992104 0.988174 0.993836 0.993067 0.992181 0.991224 0.99223 0.991093 0.988174 0.989265 0.993067 0.992262 0.991224 0.989718 0.998405 0.996501 0.996729 0.995634 0.99672 0.995711 0.993832 0.992601 0.996501 0.995525 0.995634 0.993836 0.995711 0.995853 0.992601 0.993067 0.996729 0.995634 0.995846 0.992793 0.993832 0.992601 0.987146 0.990518 0.995634 0.993836 0.992793 0.992181 0.992601 0.993067 0.990518 0.991224 0.99672 0.995711 0.993832 0.992601 0.996401 0.996344 0.994041 0.99066 0.995711 0.995853 0.992601 0.993067 0.996344 0.994756 0.99066 0.992262 0.993832 0.992601 0.987146 0.990518 0.994041 0.99066 0.990701 0.990636 0.992601 0.993067 0.990518 0.991224 0.99066 0.992262 0.990636 0.989718 1.00079 1.00062 0.999523 0.997292 0.999746 0.998623 0.998505 0.996028 1.00062 0.997037 0.997292 0.994276 0.998623 0.996154 0.996028 0.994251 0.999523 0.997292 0.998405 0.996501 0.998505 0.996028 0.99672 0.995711 0.997292 0.994276 0.996501 0.995525 0.996028 0.994251 0.995711 0.995853 0.999746 0.998623 0.998505 0.996028 0.998671 0.998207 0.997772 0.99601 0.998623 0.996154 0.996028 0.994251 0.998207 0.996758 0.99601 0.994243 0.998505 0.996028 0.99672 0.995711 0.997772 0.99601 0.996401 0.996344 0.996028 0.994251 0.995711 0.995853 0.99601 0.994243 0.996344 0.994756 1.00127 0.999535 1.00345 0.999539 0.999576 0.997591 0.999565 0.996531 0.999535 0.997391 0.999539 0.996428 0.997591 0.997129 0.996531 0.99522 1.00345 0.999539 1.00503 0.999322 0.999565 0.996531 0.999478 0.995579 0.999539 0.996428 0.999322 0.995543 0.996531 0.99522 0.995579 0.99394 0.999576 0.997591 0.999565 0.996531 0.995706 0.994494 0.994902 0.992877 0.997591 0.997129 0.996531 0.99522 0.994494 0.995845 0.992877 0.993716 0.999565 0.996531 0.999478 0.995579 0.994902 0.992877 0.993672 0.993775 0.996531 0.99522 0.995579 0.99394 0.992877 0.993716 0.993775 0.989455 0.997391 0.99718 0.996428 0.992011 0.997129 0.995748 0.99522 0.991465 0.99718 0.997778 0.992011 0.993604 0.995748 0.994174 0.991465 0.991009 0.996428 0.992011 0.995543 0.991597 0.99522 0.991465 0.99394 0.992206 0.992011 0.993604 0.991597 0.993485 0.991465 0.991009 0.992206 0.986535 0.997129 0.995748 0.99522 0.991465 0.995845 0.996015 0.993716 0.992607 0.995748 0.994174 0.991465 0.991009 0.996015 0.996508 0.992607 0.99311 0.99522 0.991465 0.99394 0.992206 0.993716 0.992607 0.989455 0.99167 0.991465 0.991009 0.992206 0.986535 0.992607 0.99311 0.99167 0.994344 0.995706 0.994494 0.994902 0.992877 0.995715 0.99509 0.9937 0.993264 0.994494 0.995845 0.992877 0.993716 0.99509 0.996015 0.993264 0.992607 0.994902 0.992877 0.993672 0.993775 0.9937 0.993264 0.993694 0.992944 0.992877 0.993716 0.993775 0.989455 0.993264 0.992607 0.992944 0.99167 0.995715 0.99509 0.9937 0.993264 0.996142 0.996559 0.992079 0.992102 0.99509 0.996015 0.993264 0.992607 0.996559 0.996508 0.992102 0.99311 0.9937 0.993264 0.993694 0.992944 0.992079 0.992102 0.989698 0.989951 0.993264 0.992607 0.992944 0.99167 0.992102 0.99311 0.989951 0.994344 1.00127 0.999535 0.999576 0.997591 0.999819 0.998135 0.997935 0.997251 0.999535 0.997391 0.997591 0.997129 0.998135 0.99718 0.997251 0.995748 0.999576 0.997591 0.995706 0.994494 0.997935 0.997251 0.995715 0.99509 0.997591 0.997129 0.994494 0.995845 0.997251 0.995748 0.99509 0.996015 0.999819 0.998135 0.997935 0.997251 0.998671 1.00138 0.99937 0.995566 0.998135 0.99718 0.997251 0.995748 1.00138 0.997778 0.995566 0.994174 0.997935 0.997251 0.995715 0.99509 0.99937 0.995566 0.996142 0.996559 0.997251 0.995748 0.99509 0.996015 0.995566 0.994174 0.996559 0.996508 1.00742 1.00784 1.01001 1.01359 1.00709 1.00814 1.01491 1.0138 1.00784 1.00662 1.01359 1.01242 1.00814 1.00678 1.0138 1.0102 1.01001 1.01359 1.01241 1.01619 1.01491 1.0138 1.01179 1.01175 1.01359 1.01242 1.01619 1.01099 1.0138 1.0102 1.01175 1.01244 1.00709 1.00814 1.01491 1.0138 1.0076 1.00802 1.01425 1.01433 1.00814 1.00678 1.0138 1.0102 1.00802 1.00798 1.01433 1.00829 1.01491 1.0138 1.01179 1.01175 1.01425 1.01433 1.00824 1.01511 1.0138 1.0102 1.01175 1.01244 1.01433 1.00829 1.01511 1.01036 1.00662 1.0046 1.01242 1.00801 1.00678 1.00556 1.0102 1.00898 1.0046 1.00199 1.00801 1.00232 1.00556 1.00248 1.00898 1.00733 1.01242 1.00801 1.01099 1.00989 1.0102 1.00898 1.01244 1.01327 1.00801 1.00232 1.00989 1.00608 1.00898 1.00733 1.01327 1.00598 1.00678 1.00556 1.0102 1.00898 1.00798 1.00792 1.00829 1.00761 1.00556 1.00248 1.00898 1.00733 1.00792 1.00491 1.00761 1.00847 1.0102 1.00898 1.01244 1.01327 1.00829 1.00761 1.01036 1.00944 1.00898 1.00733 1.01327 1.00598 1.00761 1.00847 1.00944 1.00767 1.0076 1.00802 1.01425 1.01433 1.00538 1.00526 1.00818 1.0106 1.00802 1.00798 1.01433 1.00829 1.00526 1.00792 1.0106 1.00761 1.01425 1.01433 1.00824 1.01511 1.00818 1.0106 1.01143 1.01256 1.01433 1.00829 1.01511 1.01036 1.0106 1.00761 1.01256 1.00944 1.00538 1.00526 1.00818 1.0106 1.00139 1.00267 1.00323 1.00401 1.00526 1.00792 1.0106 1.00761 1.00267 1.00491 1.00401 1.00847 1.00818 1.0106 1.01143 1.01256 1.00323 1.00401 1.00574 1.00653 1.0106 1.00761 1.01256 1.00944 1.00401 1.00847 1.00653 1.00767 1.00742 1.00784 1.00709 1.00814 0.999105 1.00152 1.00249 1.00212 1.00784 1.00662 1.00814 1.00678 1.00152 1.0046 1.00212 1.00556 1.00709 1.00814 1.0076 1.00802 1.00249 1.00212 1.00538 1.00526 1.00814 1.00678 1.00802 1.00798 1.00212 1.00556 1.00526 1.00792 0.999105 1.00152 1.00249 1.00212 0.998671 0.996365 0.997895 1.00085 1.00152 1.0046 1.00212 1.00556 0.996365 1.00199 1.00085 1.00248 1.00249 1.00212 1.00538 1.00526 0.997895 1.00085 1.00139 1.00267 1.00212 1.00556 1.00526 1.00792 1.00085 1.00248 1.00267 1.00491 1.00862 1.0082 1.01409 1.01368 1.00718 1.00851 1.01039 1.00843 1.0082 1.00944 1.01368 1.01124 1.00851 1.01141 1.00843 1.0148 1.01409 1.01368 1.02179 1.01818 1.01039 1.00843 1.02234 1.02044 1.01368 1.01124 1.01818 1.00999 1.00843 1.0148 1.02044 1.01191 1.00718 1.00851 1.01039 1.00843 1.00769 1.00791 1.01025 1.0116 1.00851 1.01141 1.00843 1.0148 1.00791 1.00922 1.0116 1.0153 1.01039 1.00843 1.02234 1.02044 1.01025 1.0116 1.01492 1.01713 1.00843 1.0148 1.02044 1.01191 1.0116 1.0153 1.01713 1.01838 1.00944 1.00563 1.01124 1.00838 1.01141 1.00621 1.0148 1.00644 1.00563 1.00112 1.00838 1.00349 1.00621 1.00233 1.00644 1.00703 1.01124 1.00838 1.00999 1.0157 1.0148 1.00644 1.01191 1.01267 1.00838 1.00349 1.0157 1.00356 1.00644 1.00703 1.01267 1.00692 1.01141 1.00621 1.0148 1.00644 1.00922 1.00688 1.0153 1.01085 1.00621 1.00233 1.00644 1.00703 1.00688 1.00474 1.01085 1.00795 1.0148 1.00644 1.01191 1.01267 1.0153 1.01085 1.01838 1.01763 1.00644 1.00703 1.01267 1.00692 1.01085 1.00795 1.01763 1.01474 1.00769 1.00791 1.01025 1.0116 1.0047 1.00567 1.00874 1.00765 1.00791 1.00922 1.0116 1.0153 1.00567 1.00688 1.00765 1.01085 1.01025 1.0116 1.01492 1.01713 1.00874 1.00765 1.00317 1.01619 1.0116 1.0153 1.01713 1.01838 1.00765 1.01085 1.01619 1.01763 1.0047 1.00567 1.00874 1.00765 1.00032 1.00219 1.00274 1.00572 1.00567 1.00688 1.00765 1.01085 1.00219 1.00474 1.00572 1.00795 1.00874 1.00765 1.00317 1.01619 1.00274 1.00572 1.00373 1.00437 1.00765 1.01085 1.01619 1.01763 1.00572 1.00795 1.00437 1.01474 1.00862 1.0082 1.00718 1.00851 0.99965 1.00176 1.00072 1.00142 1.0082 1.00944 1.00851 1.01141 1.00176 1.00563 1.00142 1.00621 1.00718 1.00851 1.00769 1.00791 1.00072 1.00142 1.0047 1.00567 1.00851 1.01141 1.00791 1.00922 1.00142 1.00621 1.00567 1.00688 0.99965 1.00176 1.00072 1.00142 0.998671 0.997582 0.998993 0.999625 1.00176 1.00563 1.00142 1.00621 0.997582 1.00112 0.999625 1.00233 1.00072 1.00142 1.0047 1.00567 0.998993 0.999625 1.00032 1.00219 1.00142 1.00621 1.00567 1.00688 0.999625 1.00233 1.00219 1.00474 1.00139 0.999769 1.00259 0.999548 0.999583 0.997376 0.999341 0.995897 0.999769 0.999098 0.999548 0.997151 0.997376 0.99659 0.995897 0.995294 1.00259 0.999548 1.00534 0.999897 0.999341 0.995897 0.999449 0.997327 0.999548 0.997151 0.999897 0.996324 0.995897 0.995294 0.997327 0.996845 0.999583 0.997376 0.999341 0.995897 0.996694 0.995304 0.99557 0.99276 0.997376 0.99659 0.995897 0.995294 0.995304 0.995219 0.99276 0.992384 0.999341 0.995897 0.999449 0.997327 0.99557 0.99276 0.993539 0.990349 0.995897 0.995294 0.997327 0.996845 0.99276 0.992384 0.990349 0.990181 0.999098 0.995965 0.997151 0.993347 0.99659 0.99589 0.995294 0.992695 0.995965 0.99602 0.993347 0.990546 0.99589 0.995643 0.992695 0.991215 0.997151 0.993347 0.996324 0.991483 0.995294 0.992695 0.996845 0.995275 0.993347 0.990546 0.991483 0.990185 0.992695 0.991215 0.995275 0.990961 0.99659 0.99589 0.995294 0.992695 0.995219 0.995157 0.992384 0.991337 0.99589 0.995643 0.992695 0.991215 0.995157 0.996205 0.991337 0.990812 0.995294 0.992695 0.996845 0.995275 0.992384 0.991337 0.990181 0.987305 0.992695 0.991215 0.995275 0.990961 0.991337 0.990812 0.987305 0.993123 0.996694 0.995304 0.99557 0.99276 0.994966 0.994443 0.992782 0.990839 0.995304 0.995219 0.99276 0.992384 0.994443 0.995157 0.990839 0.991337 0.99557 0.99276 0.993539 0.990349 0.992782 0.990839 0.98934 0.988812 0.99276 0.992384 0.990349 0.990181 0.990839 0.991337 0.988812 0.987305 0.994966 0.994443 0.992782 0.990839 0.994919 0.995365 0.992385 0.992157 0.994443 0.995157 0.990839 0.991337 0.995365 0.996205 0.992157 0.990812 0.992782 0.990839 0.98934 0.988812 0.992385 0.992157 0.990973 0.988069 0.990839 0.991337 0.988812 0.987305 0.992157 0.990812 0.988069 0.993123 1.00139 0.999769 0.999583 0.997376 0.998527 0.998436 0.997652 0.996547 0.999769 0.999098 0.997376 0.99659 0.998436 0.995965 0.996547 0.99589 0.999583 0.997376 0.996694 0.995304 0.997652 0.996547 0.994966 0.994443 0.997376 0.99659 0.995304 0.995219 0.996547 0.99589 0.994443 0.995157 0.998527 0.998436 0.997652 0.996547 0.998671 0.999362 0.99798 0.996588 0.998436 0.995965 0.996547 0.99589 0.999362 0.99602 0.996588 0.995643 0.997652 0.996547 0.994966 0.994443 0.99798 0.996588 0.994919 0.995365 0.996547 0.99589 0.994443 0.995157 0.996588 0.995643 0.995365 0.996205 0.997143 0.997121 0.993956 0.994344 0.995852 0.996028 0.99269 0.994664 0.997121 0.997149 0.994344 0.994371 0.996028 0.995773 0.994664 0.994698 0.993956 0.994344 0.988222 0.994716 0.99269 0.994664 0.98967 0.992499 0.994344 0.994371 0.994716 0.995492 0.994664 0.994698 0.992499 0.996475 0.995852 0.996028 0.99269 0.994664 0.99687 0.996147 0.99258 0.995182 0.996028 0.995773 0.994664 0.994698 0.996147 0.99524 0.995182 0.993954 0.99269 0.994664 0.98967 0.992499 0.99258 0.995182 0.987025 0.994288 0.994664 0.994698 0.992499 0.996475 0.995182 0.993954 0.994288 0.994298 0.997149 0.999227 0.994371 1.00096 0.995773 0.997117 0.994698 0.998453 0.999227 1.00032 1.00096 1.00389 0.997117 0.998878 0.998453 1.00109 0.994371 1.00096 0.995492 1.00048 0.994698 0.998453 0.996475 0.996573 1.00096 1.00389 1.00048 1.00511 0.998453 1.00109 0.996573 1.00008 0.995773 0.997117 0.994698 0.998453 0.99524 0.994772 0.993954 0.993447 0.997117 0.998878 0.998453 1.00109 0.994772 0.99489 0.993447 0.995125 0.994698 0.998453 0.996475 0.996573 0.993954 0.993447 0.994298 0.990438 0.998453 1.00109 0.996573 1.00008 0.993447 0.995125 0.990438 0.99323 0.99687 0.996147 0.99258 0.995182 0.997446 0.996543 0.992213 0.992021 0.996147 0.99524 0.995182 0.993954 0.996543 0.994772 0.992021 0.993447 0.99258 0.995182 0.987025 0.994288 0.992213 0.992021 0.991464 0.991078 0.995182 0.993954 0.994288 0.994298 0.992021 0.993447 0.991078 0.990438 0.997446 0.996543 0.992213 0.992021 0.99736 0.997044 0.994515 0.992791 0.996543 0.994772 0.992021 0.993447 0.997044 0.99489 0.992791 0.995125 0.992213 0.992021 0.991464 0.991078 0.994515 0.992791 0.990563 0.990011 0.992021 0.993447 0.991078 0.990438 0.992791 0.995125 0.990011 0.99323 0.997143 0.997121 0.995852 0.996028 1.00001 0.999249 0.999194 0.998343 0.997121 0.997149 0.996028 0.995773 0.999249 0.999227 0.998343 0.997117 0.995852 0.996028 0.99687 0.996147 0.999194 0.998343 0.997446 0.996543 0.996028 0.995773 0.996147 0.99524 0.998343 0.997117 0.996543 0.994772 1.00001 0.999249 0.999194 0.998343 0.998671 1.00077 1.00152 0.999801 0.999249 0.999227 0.998343 0.997117 1.00077 1.00032 0.999801 0.998878 0.999194 0.998343 0.997446 0.996543 1.00152 0.999801 0.99736 0.997044 0.998343 0.997117 0.996543 0.994772 0.999801 0.998878 0.997044 0.99489 0.997143 0.995852 0.993956 0.99269 0.995284 0.994199 0.993602 0.989767 0.995852 0.99687 0.99269 0.99258 0.994199 0.995486 0.989767 0.992456 0.993956 0.99269 0.988222 0.98967 0.993602 0.989767 0.994791 0.993664 0.99269 0.99258 0.98967 0.987025 0.989767 0.992456 0.993664 0.990672 0.995284 0.994199 0.993602 0.989767 0.996965 0.995969 0.996294 0.994358 0.994199 0.995486 0.989767 0.992456 0.995969 0.995617 0.994358 0.992225 0.993602 0.989767 0.994791 0.993664 0.996294 0.994358 0.994074 0.99298 0.989767 0.992456 0.993664 0.990672 0.994358 0.992225 0.99298 0.991798 0.99687 0.997446 0.99258 0.992213 0.995486 0.995206 0.992456 0.995664 0.997446 0.99736 0.992213 0.994515 0.995206 0.996934 0.995664 0.993833 0.99258 0.992213 0.987025 0.991464 0.992456 0.995664 0.990672 0.993512 0.992213 0.994515 0.991464 0.990563 0.995664 0.993833 0.993512 0.992341 0.995486 0.995206 0.992456 0.995664 0.995617 0.995886 0.992225 0.993025 0.995206 0.996934 0.995664 0.993833 0.995886 0.995403 0.993025 0.995135 0.992456 0.995664 0.990672 0.993512 0.992225 0.993025 0.991798 0.991736 0.995664 0.993833 0.993512 0.992341 0.993025 0.995135 0.991736 0.990729 0.996965 0.995969 0.996294 0.994358 0.998823 0.997395 0.999445 0.996571 0.995969 0.995617 0.994358 0.992225 0.997395 0.995886 0.996571 0.993025 0.996294 0.994358 0.994074 0.99298 0.999445 0.996571 1.00049 0.994943 0.994358 0.992225 0.99298 0.991798 0.996571 0.993025 0.994943 0.991736 0.998823 0.997395 0.999445 0.996571 1.00139 0.997794 1.00323 0.998433 0.997395 0.995886 0.996571 0.993025 0.997794 0.995403 0.998433 0.995135 0.999445 0.996571 1.00049 0.994943 1.00323 0.998433 1.00574 0.998705 0.996571 0.993025 0.994943 0.991736 0.998433 0.995135 0.998705 0.990729 0.997143 0.995852 0.995284 0.994199 1.00001 0.999194 0.998004 0.997113 0.995852 0.99687 0.994199 0.995486 0.999194 0.997446 0.997113 0.995206 0.995284 0.994199 0.996965 0.995969 0.998004 0.997113 0.998823 0.997395 0.994199 0.995486 0.995969 0.995617 0.997113 0.995206 0.997395 0.995886 1.00001 0.999194 0.998004 0.997113 0.998671 1.00152 0.997895 0.996639 0.999194 0.997446 0.997113 0.995206 1.00152 0.99736 0.996639 0.996934 0.998004 0.997113 0.998823 0.997395 0.997895 0.996639 1.00139 0.997794 0.997113 0.995206 0.997395 0.995886 0.996639 0.996934 0.997794 0.995403 1.00127 0.999576 1.00345 0.999565 1.00064 0.998612 1.00094 0.997171 0.999576 0.995706 0.999565 0.994902 0.998612 0.996253 0.997171 0.994855 1.00345 0.999565 1.00503 0.999478 1.00094 0.997171 1.00077 0.997708 0.999565 0.994902 0.999478 0.993672 0.997171 0.994855 0.997708 0.997163 1.00064 0.998612 1.00094 0.997171 0.997599 0.99648 0.9951 0.994659 0.998612 0.996253 0.997171 0.994855 0.99648 0.994657 0.994659 0.992769 1.00094 0.997171 1.00077 0.997708 0.9951 0.994659 0.991539 0.993992 0.997171 0.994855 0.997708 0.997163 0.994659 0.992769 0.993992 0.99307 0.995706 0.995715 0.994902 0.9937 0.996253 0.997077 0.994855 0.992455 0.995715 0.996142 0.9937 0.992079 0.997077 0.996479 0.992455 0.993553 0.994902 0.9937 0.993672 0.993694 0.994855 0.992455 0.997163 0.98832 0.9937 0.992079 0.993694 0.989698 0.992455 0.993553 0.98832 0.992456 0.996253 0.997077 0.994855 0.992455 0.994657 0.995103 0.992769 0.990869 0.997077 0.996479 0.992455 0.993553 0.995103 0.995993 0.990869 0.993273 0.994855 0.992455 0.997163 0.98832 0.992769 0.990869 0.99307 0.992575 0.992455 0.993553 0.98832 0.992456 0.990869 0.993273 0.992575 0.986809 0.997599 0.99648 0.9951 0.994659 0.99673 0.994897 0.993743 0.991611 0.99648 0.994657 0.994659 0.992769 0.994897 0.995103 0.991611 0.990869 0.9951 0.994659 0.991539 0.993992 0.993743 0.991611 0.99582 0.991852 0.994659 0.992769 0.993992 0.99307 0.991611 0.990869 0.991852 0.992575 0.99673 0.994897 0.993743 0.991611 0.99602 0.99619 0.990546 0.993679 0.994897 0.995103 0.991611 0.990869 0.99619 0.995993 0.993679 0.993273 0.993743 0.991611 0.99582 0.991852 0.990546 0.993679 0.990185 0.991059 0.991611 0.990869 0.991852 0.992575 0.993679 0.993273 0.991059 0.986809 1.00127 0.999576 1.00064 0.998612 0.999819 0.997935 0.999853 0.998021 0.999576 0.995706 0.998612 0.996253 0.997935 0.995715 0.998021 0.997077 1.00064 0.998612 0.997599 0.99648 0.999853 0.998021 0.99673 0.994897 0.998612 0.996253 0.99648 0.994657 0.998021 0.997077 0.994897 0.995103 0.999819 0.997935 0.999853 0.998021 0.998671 0.99937 0.999362 0.999183 0.997935 0.995715 0.998021 0.997077 0.99937 0.996142 0.999183 0.996479 0.999853 0.998021 0.99673 0.994897 0.999362 0.999183 0.99602 0.99619 0.998021 0.997077 0.994897 0.995103 0.999183 0.996479 0.99619 0.995993 1.00032 0.999607 1.00389 1.00121 0.998878 0.997092 1.00109 0.9988 0.999607 0.997364 1.00121 0.996935 0.997092 0.994113 0.9988 0.994344 1.00389 1.00121 1.00511 1.00053 1.00109 0.9988 1.00008 0.996863 1.00121 0.996935 1.00053 0.995328 0.9988 0.994344 0.996863 0.992061 0.998878 0.997092 1.00109 0.9988 0.99489 0.994102 0.995125 0.993784 0.997092 0.994113 0.9988 0.994344 0.994102 0.99406 0.993784 0.993579 1.00109 0.9988 1.00008 0.996863 0.995125 0.993784 0.99323 0.991294 0.9988 0.994344 0.996863 0.992061 0.993784 0.993579 0.991294 0.993634 0.997778 0.998847 0.993604 0.9928 0.996761 0.996328 0.994753 0.993915 0.998847 0.995512 0.9928 0.992858 0.996328 0.997346 0.993915 0.9952 0.993604 0.9928 0.993485 0.991059 0.994753 0.993915 0.992661 0.99582 0.9928 0.992858 0.991059 0.988576 0.993915 0.9952 0.99582 0.995995 0.996761 0.996328 0.994753 0.993915 0.997364 0.994113 0.996935 0.994344 0.996328 0.997346 0.993915 0.9952 0.994113 0.99406 0.994344 0.993579 0.994753 0.993915 0.992661 0.99582 0.996935 0.994344 0.995328 0.992061 0.993915 0.9952 0.99582 0.995995 0.994344 0.993579 0.992061 0.993634 0.99736 0.997044 0.994515 0.992791 0.998039 0.997063 0.992746 0.994324 0.997044 0.99489 0.992791 0.995125 0.997063 0.994102 0.994324 0.993784 0.994515 0.992791 0.990563 0.990011 0.992746 0.994324 0.991956 0.991714 0.992791 0.995125 0.990011 0.99323 0.994324 0.993784 0.991714 0.991294 0.998039 0.997063 0.992746 0.994324 0.995512 0.997346 0.992858 0.9952 0.997063 0.994102 0.994324 0.993784 0.997346 0.99406 0.9952 0.993579 0.992746 0.994324 0.991956 0.991714 0.992858 0.9952 0.988576 0.995995 0.994324 0.993784 0.991714 0.991294 0.9952 0.993579 0.995995 0.993634 0.998671 1.00077 1.00152 0.999801 1.00138 0.999356 1.00116 0.999328 1.00077 1.00032 0.999801 0.998878 0.999356 0.999607 0.999328 0.997092 1.00152 0.999801 0.99736 0.997044 1.00116 0.999328 0.998039 0.997063 0.999801 0.998878 0.997044 0.99489 0.999328 0.997092 0.997063 0.994102 1.00138 0.999356 1.00116 0.999328 0.997778 0.996761 0.998847 0.996328 0.999356 0.999607 0.999328 0.997092 0.996761 0.997364 0.996328 0.994113 1.00116 0.999328 0.998039 0.997063 0.998847 0.996328 0.995512 0.997346 0.999328 0.997092 0.997063 0.994102 0.996328 0.994113 0.997346 0.99406 0.99708 0.995305 0.997418 0.993524 1.00037 0.999427 1.00074 0.997828 0.995305 0.993653 0.993524 0.991622 0.999427 0.99654