# vtk DataFile Version 3.0
#This file was generated by the deal.II library on 2025/4/17 at 14:11:48
ASCII
DATASET UNSTRUCTURED_GRID

POINTS 8192 double
-0.353262 4.37115e-05 -0.354013
-0.461684 -0.00166433 -0.298292
-0.528533 -0.0100583 -0.529285
-0.639065 -0.00989043 -0.423885
-0.414076 -0.117297 -0.299999
-0.507593 -0.105761 -0.258326
-0.591029 -0.165813 -0.432024
-0.67687 -0.144499 -0.356172
-0.461684 -0.00166433 -0.298292
-0.568686 3.68979e-05 -0.236044
-0.639065 -0.00989043 -0.423885
-0.743513 -0.00566451 -0.311799
-0.507593 -0.105761 -0.258326
-0.600143 -0.0913593 -0.212395
-0.67687 -0.144499 -0.356172
-0.759028 -0.120648 -0.276821
-0.528533 -0.0100583 -0.529285
-0.639065 -0.00989043 -0.423885
-0.706828 3.57112e-05 -0.70755
-0.821306 -0.00284026 -0.548478
-0.591029 -0.165813 -0.432024
-0.67687 -0.144499 -0.356172
-0.773582 -0.202642 -0.56371
-0.851445 -0.17403 -0.451696
-0.639065 -0.00989043 -0.423885
-0.743513 -0.00566451 -0.311799
-0.821306 -0.00284026 -0.548478
-0.923526 3.24761e-05 -0.382994
-0.67687 -0.144499 -0.356172
-0.759028 -0.120648 -0.276821
-0.851445 -0.17403 -0.451696
-0.922488 -0.14282 -0.337372
-0.414076 -0.117297 -0.299999
-0.507593 -0.105761 -0.258326
-0.591029 -0.165813 -0.432024
-0.67687 -0.144499 -0.356172
-0.471081 -0.23559 -0.236051
-0.55039 -0.21111 -0.211571
-0.644872 -0.320004 -0.320465
-0.708486 -0.279027 -0.279488
-0.507593 -0.105761 -0.258326
-0.600143 -0.0913593 -0.212395
-0.67687 -0.144499 -0.356172
-0.759028 -0.120648 -0.276821
-0.55039 -0.21111 -0.211571
-0.629045 -0.184195 -0.184567
-0.708486 -0.279027 -0.279488
-0.77002 -0.236531 -0.236904
-0.591029 -0.165813 -0.432024
-0.67687 -0.144499 -0.356172
-0.773582 -0.202642 -0.56371
-0.851445 -0.17403 -0.451696
-0.644872 -0.320004 -0.320465
-0.708486 -0.279027 -0.279488
-0.824715 -0.399457 -0.399886
-0.871295 -0.342708 -0.343138
-0.67687 -0.144499 -0.356172
-0.759028 -0.120648 -0.276821
-0.851445 -0.17403 -0.451696
-0.922488 -0.14282 -0.337372
-0.708486 -0.279027 -0.279488
-0.77002 -0.236531 -0.236904
-0.871295 -0.342708 -0.343138
-0.914527 -0.285344 -0.285687
-0.568686 3.68979e-05 -0.236044
-0.536491 -0.00240511 -0.116074
-0.743513 -0.00566451 -0.311799
-0.748973 -0.0104175 -0.159187
-0.600143 -0.0913593 -0.212395
-0.570012 -0.105858 -0.10612
-0.759028 -0.120648 -0.276821
-0.757204 -0.142346 -0.142608
-0.536491 -0.00240511 -0.116074
-0.499595 4.42816e-05 -9.36258e-05
-0.748973 -0.0104175 -0.159187
-0.74528 -0.00989701 -0.0100349
-0.570012 -0.105858 -0.10612
-0.536477 -0.115807 -0.0025368
-0.757204 -0.142346 -0.142608
-0.748958 -0.158919 -0.0105492
-0.743513 -0.00566451 -0.311799
-0.748973 -0.0104175 -0.159187
-0.923526 3.24761e-05 -0.382994
-0.968985 -0.00329241 -0.190833
-0.759028 -0.120648 -0.276821
-0.757204 -0.142346 -0.142608
-0.922488 -0.14282 -0.337372
-0.950823 -0.169874 -0.170105
-0.748973 -0.0104175 -0.159187
-0.74528 -0.00989701 -0.0100349
-0.968985 -0.00329241 -0.190833
-0.999546 4.63045e-05 -8.06962e-05
-0.757204 -0.142346 -0.142608
-0.748958 -0.158919 -0.0105492
-0.950823 -0.169874 -0.170105
-0.968947 -0.190594 -0.00341048
-0.600143 -0.0913593 -0.212395
-0.570012 -0.105858 -0.10612
-0.759028 -0.120648 -0.276821
-0.757204 -0.142346 -0.142608
-0.629045 -0.184195 -0.184567
-0.600097 -0.211955 -0.0915836
-0.77002 -0.236531 -0.236904
-0.758982 -0.276381 -0.120872
-0.570012 -0.105858 -0.10612
-0.536477 -0.115807 -0.0025368
-0.757204 -0.142346 -0.142608
-0.748958 -0.158919 -0.0105492
-0.600097 -0.211955 -0.0915836
-0.568632 -0.235587 -7.82308e-05
-0.758982 -0.276381 -0.120872
-0.743459 -0.311342 -0.00577963
-0.759028 -0.120648 -0.276821
-0.757204 -0.142346 -0.142608
-0.922488 -0.14282 -0.337372
-0.950823 -0.169874 -0.170105
-0.77002 -0.236531 -0.236904
-0.758982 -0.276381 -0.120872
-0.914527 -0.285344 -0.285687
-0.922423 -0.336957 -0.143015
-0.757204 -0.142346 -0.142608
-0.748958 -0.158919 -0.0105492
-0.950823 -0.169874 -0.170105
-0.968947 -0.190594 -0.00341048
-0.758982 -0.276381 -0.120872
-0.743459 -0.311342 -0.00577963
-0.922423 -0.336957 -0.143015
-0.923437 -0.382558 -6.7443e-05
-0.471081 -0.23559 -0.236051
-0.55039 -0.21111 -0.211571
-0.644872 -0.320004 -0.320465
-0.708486 -0.279027 -0.279488
-0.414029 -0.299362 -0.117566
-0.507545 -0.25769 -0.106031
-0.590982 -0.431387 -0.166082
-0.676822 -0.355536 -0.144768
-0.55039 -0.21111 -0.211571
-0.629045 -0.184195 -0.184567
-0.708486 -0.279027 -0.279488
-0.77002 -0.236531 -0.236904
-0.507545 -0.25769 -0.106031
-0.600097 -0.211955 -0.0915836
-0.676822 -0.355536 -0.144768
-0.758982 -0.276381 -0.120872
-0.644872 -0.320004 -0.320465
-0.708486 -0.279027 -0.279488
-0.824715 -0.399457 -0.399886
-0.871295 -0.342708 -0.343138
-0.590982 -0.431387 -0.166082
-0.676822 -0.355536 -0.144768
-0.773499 -0.563079 -0.202875
-0.851362 -0.451065 -0.174262
-0.708486 -0.279027 -0.279488
-0.77002 -0.236531 -0.236904
-0.871295 -0.342708 -0.343138
-0.914527 -0.285344 -0.285687
-0.676822 -0.355536 -0.144768
-0.758982 -0.276381 -0.120872
-0.851362 -0.451065 -0.174262
-0.922423 -0.336957 -0.143015
-0.414029 -0.299362 -0.117566
-0.507545 -0.25769 -0.106031
-0.590982 -0.431387 -0.166082
-0.676822 -0.355536 -0.144768
-0.353223 -0.353326 -8.949e-05
-0.461645 -0.297604 -0.00179754
-0.528495 -0.528597 -0.0101915
-0.639027 -0.423198 -0.0100236
-0.507545 -0.25769 -0.106031
-0.600097 -0.211955 -0.0915836
-0.676822 -0.355536 -0.144768
-0.758982 -0.276381 -0.120872
-0.461645 -0.297604 -0.00179754
-0.568632 -0.235587 -7.82308e-05
-0.639027 -0.423198 -0.0100236
-0.743459 -0.311342 -0.00577963
-0.590982 -0.431387 -0.166082
-0.676822 -0.355536 -0.144768
-0.773499 -0.563079 -0.202875
-0.851362 -0.451065 -0.174262
-0.528495 -0.528597 -0.0101915
-0.639027 -0.423198 -0.0100236
-0.706739 -0.70685 -7.83342e-05
-0.821217 -0.547778 -0.0029543
-0.676822 -0.355536 -0.144768
-0.758982 -0.276381 -0.120872
-0.851362 -0.451065 -0.174262
-0.922423 -0.336957 -0.143015
-0.639027 -0.423198 -0.0100236
-0.743459 -0.311342 -0.00577963
-0.821217 -0.547778 -0.0029543
-0.923437 -0.382558 -6.7443e-05
-0.353262 4.37115e-05 -0.354013
-0.461684 -0.00166433 -0.298292
-0.414076 -0.117297 -0.299999
-0.507593 -0.105761 -0.258326
-0.173877 -0.014446 -0.174478
-0.353438 -0.0141182 -0.152733
-0.294153 -0.15482 -0.155218
-0.431748 -0.134087 -0.134485
-0.461684 -0.00166433 -0.298292
-0.568686 3.68979e-05 -0.236044
-0.507593 -0.105761 -0.258326
-0.600143 -0.0913593 -0.212395
-0.353438 -0.0141182 -0.152733
-0.536491 -0.00240511 -0.116074
-0.431748 -0.134087 -0.134485
-0.570012 -0.105858 -0.10612
-0.414076 -0.117297 -0.299999
-0.507593 -0.105761 -0.258326
-0.471081 -0.23559 -0.236051
-0.55039 -0.21111 -0.211571
-0.294153 -0.15482 -0.155218
-0.431748 -0.134087 -0.134485
-0.414029 -0.299362 -0.117566
-0.507545 -0.25769 -0.106031
-0.507593 -0.105761 -0.258326
-0.600143 -0.0913593 -0.212395
-0.55039 -0.21111 -0.211571
-0.629045 -0.184195 -0.184567
-0.431748 -0.134087 -0.134485
-0.570012 -0.105858 -0.10612
-0.507545 -0.25769 -0.106031
-0.600097 -0.211955 -0.0915836
-0.173877 -0.014446 -0.174478
-0.353438 -0.0141182 -0.152733
-0.294153 -0.15482 -0.155218
-0.431748 -0.134087 -0.134485
0.000198633 6.62984e-05 -0.000142049
-0.243597 -0.0125612 -0.0127696
-0.173935 -0.174067 -0.014642
-0.353496 -0.152323 -0.0143141
-0.353438 -0.0141182 -0.152733
-0.536491 -0.00240511 -0.116074
-0.431748 -0.134087 -0.134485
-0.570012 -0.105858 -0.10612
-0.243597 -0.0125612 -0.0127696
-0.499595 4.42816e-05 -9.36258e-05
-0.353496 -0.152323 -0.0143141
-0.536477 -0.115807 -0.0025368
-0.294153 -0.15482 -0.155218
-0.431748 -0.134087 -0.134485
-0.414029 -0.299362 -0.117566
-0.507545 -0.25769 -0.106031
-0.173935 -0.174067 -0.014642
-0.353496 -0.152323 -0.0143141
-0.353223 -0.353326 -8.949e-05
-0.461645 -0.297604 -0.00179754
-0.431748 -0.134087 -0.134485
-0.570012 -0.105858 -0.10612
-0.507545 -0.25769 -0.106031
-0.600097 -0.211955 -0.0915836
-0.353496 -0.152323 -0.0143141
-0.536477 -0.115807 -0.0025368
-0.461645 -0.297604 -0.00179754
-0.568632 -0.235587 -7.82308e-05
0.353331 -1.77802e-05 0.353982
0.41096 0.117643 0.285747
0.537196 -0.0281956 0.537847
0.59654 0.137241 0.402785
0.459771 -0.00426891 0.291517
0.503359 0.102381 0.243448
0.641432 -0.0301337 0.418219
0.678036 0.118461 0.329601
0.41096 0.117643 0.285747
0.471142 0.235615 0.236016
0.59654 0.137241 0.402785
0.660784 0.312178 0.312551
0.503359 0.102381 0.243448
0.548316 0.208391 0.20879
0.678036 0.118461 0.329601
0.717351 0.269624 0.270008
0.537196 -0.0281956 0.537847
0.59654 0.137241 0.402785
0.706906 -1.16383e-05 0.707519
0.757604 0.193306 0.520103
0.641432 -0.0301337 0.418219
0.678036 0.118461 0.329601
0.80767 -0.0161591 0.544907
0.831381 0.16169 0.422151
0.59654 0.137241 0.402785
0.660784 0.312178 0.312551
0.757604 0.193306 0.520103
0.81626 0.408164 0.408479
0.678036 0.118461 0.329601
0.717351 0.269624 0.270008
0.831381 0.16169 0.422151
0.859669 0.346653 0.346986
0.459771 -0.00426891 0.291517
0.503359 0.102381 0.243448
0.641432 -0.0301337 0.418219
0.678036 0.118461 0.329601
0.568747 -1.75105e-05 0.236013
0.598209 0.0930777 0.206185
0.753618 -0.013835 0.304495
0.766338 0.108322 0.259167
0.503359 0.102381 0.243448
0.548316 0.208391 0.20879
0.678036 0.118461 0.329601
0.717351 0.269624 0.270008
0.598209 0.0930777 0.206185
0.628248 0.185082 0.185397
0.766338 0.108322 0.259167
0.780561 0.229461 0.229773
0.641432 -0.0301337 0.418219
0.678036 0.118461 0.329601
0.80767 -0.0161591 0.544907
0.831381 0.16169 0.422151
0.753618 -0.013835 0.304495
0.766338 0.108322 0.259167
0.923591 -1.50052e-05 0.382959
0.917235 0.143655 0.323043
0.678036 0.118461 0.329601
0.717351 0.269624 0.270008
0.831381 0.16169 0.422151
0.859669 0.346653 0.346986
0.766338 0.108322 0.259167
0.780561 0.229461 0.229773
0.917235 0.143655 0.323043
0.913649 0.286861 0.287132
0.471142 0.235615 0.236016
0.410896 0.285169 0.117852
0.660784 0.312178 0.312551
0.596477 0.402225 0.137437
0.548316 0.208391 0.20879
0.503295 0.242872 0.102588
0.717351 0.269624 0.270008
0.677973 0.329034 0.118661
0.410896 0.285169 0.117852
0.353267 0.353351 4.54313e-05
0.596477 0.402225 0.137437
[...]
POINT_DATA 8192
SCALARS M_0 double 1
LOOKUP_TABLE default
0.997948 1.00114 0.996183 1.00118 0.99987 1.00165 0.999979 1.00208 1.00114 1.00194 1.00118 1.00535 1.00165 1.00265 1.00208 1.00393 0.996183 1.00118 0.995427 1.00092 0.999979 1.00208 0.999976 1.00239 1.00118 1.00535 1.00092 1.00662 1.00208 1.00393 1.00239 1.00336 0.99987 1.00165 0.999979 1.00208 1.0024 1.00264 1.00418 1.00385 1.00165 1.00265 1.00208 1.00393 1.00264 1.00438 1.00385 1.00674 0.999979 1.00208 0.999976 1.00239 1.00418 1.00385 1.00217 1.00266 1.00208 1.00393 1.00239 1.00336 1.00385 1.00674 1.00266 1.00987 1.00194 1.00238 1.00535 1.00428 1.00265 1.00303 1.00393 1.00545 1.00238 1.00237 1.00428 1.00774 1.00303 1.00244 1.00545 1.00514 1.00535 1.00428 1.00662 1.00609 1.00393 1.00545 1.00336 1.00544 1.00428 1.00774 1.00609 1.01182 1.00545 1.00514 1.00544 1.01501 1.00265 1.00303 1.00393 1.00545 1.00438 1.00555 1.00674 1.00558 1.00303 1.00244 1.00545 1.00514 1.00555 1.00643 1.00558 1.00442 1.00393 1.00545 1.00336 1.00544 1.00674 1.00558 1.00987 1.01042 1.00545 1.00514 1.00544 1.01501 1.00558 1.00442 1.01042 1.00894 1.0024 1.00264 1.00418 1.00385 1.00169 1.00312 1.00513 1.00586 1.00264 1.00438 1.00385 1.00674 1.00312 1.00555 1.00586 1.00558 1.00418 1.00385 1.00217 1.00266 1.00513 1.00586 1.00741 1.00912 1.00385 1.00674 1.00266 1.00987 1.00586 1.00558 1.00912 1.01042 1.00169 1.00312 1.00513 1.00586 1.00464 1.00237 1.00624 1.00448 1.00312 1.00555 1.00586 1.00558 1.00237 1.00643 1.00448 1.00442 1.00513 1.00586 1.00741 1.00912 1.00624 1.00448 1.0129 1.00677 1.00586 1.00558 1.00912 1.01042 1.00448 1.00442 1.00677 1.00894 0.997948 1.00114 0.99987 1.00165 0.999118 1.00073 1.00078 1.00147 1.00114 1.00194 1.00165 1.00265 1.00073 1.00238 1.00147 1.00303 0.99987 1.00165 1.0024 1.00264 1.00078 1.00147 1.00169 1.00312 1.00165 1.00265 1.00264 1.00438 1.00147 1.00303 1.00312 1.00555 0.999118 1.00073 1.00078 1.00147 0.999257 1.00006 1.00055 1.00093 1.00073 1.00238 1.00147 1.00303 1.00006 1.00237 1.00093 1.00244 1.00078 1.00147 1.00169 1.00312 1.00055 1.00093 1.00464 1.00237 1.00147 1.00303 1.00312 1.00555 1.00093 1.00244 1.00237 1.00643 0.997666 1.00016 0.997292 1.00045 1.00052 1.00215 1.00107 1.00232 1.00016 1.00225 1.00045 1.00428 1.00215 1.00366 1.00232 1.00629 0.997292 1.00045 0.99404 1.00106 1.00107 1.00232 1.0009 1.00216 1.00045 1.00428 1.00106 1.00694 1.00232 1.00629 1.00216 1.00606 1.00052 1.00215 1.00107 1.00232 1.00105 1.00346 1.00361 1.00531 1.00215 1.00366 1.00232 1.00629 1.00346 1.00291 1.00531 1.00508 1.00107 1.00232 1.0009 1.00216 1.00361 1.00531 1.00923 1.00875 1.00232 1.00629 1.00216 1.00606 1.00531 1.00508 1.00875 1.0088 1.00225 1.00244 1.00428 1.00746 1.00366 1.00431 1.00629 1.00625 1.00244 1.0031 1.00746 1.00874 1.00431 1.00291 1.00625 1.00584 1.00428 1.00746 1.00694 1.00913 1.00629 1.00625 1.00606 1.01255 1.00746 1.00874 1.00913 1.01033 1.00625 1.00584 1.01255 1.00739 1.00366 1.00431 1.00629 1.00625 1.00291 1.00546 1.00508 1.00597 1.00431 1.00291 1.00625 1.00584 1.00546 1.00608 1.00597 1.00871 1.00629 1.00625 1.00606 1.01255 1.00508 1.00597 1.0088 1.00881 1.00625 1.00584 1.01255 1.00739 1.00597 1.00871 1.00881 1.00608 1.00105 1.00346 1.00361 1.00531 1.00219 1.00489 1.00503 1.0078 1.00346 1.00291 1.00531 1.00508 1.00489 1.00546 1.0078 1.00597 1.00361 1.00531 1.00923 1.00875 1.00503 1.0078 1.01001 1.00738 1.00531 1.00508 1.00875 1.0088 1.0078 1.00597 1.00738 1.00881 1.00219 1.00489 1.00503 1.0078 1.00363 1.00411 1.00501 1.00506 1.00489 1.00546 1.0078 1.00597 1.00411 1.00608 1.00506 1.00871 1.00503 1.0078 1.01001 1.00738 1.00501 1.00506 1.01518 1.01157 1.0078 1.00597 1.00738 1.00881 1.00506 1.00871 1.01157 1.00608 0.997666 1.00016 1.00052 1.00215 0.999254 1.00068 1.00051 1.0024 1.00016 1.00225 1.00215 1.00366 1.00068 1.00244 1.0024 1.00431 1.00052 1.00215 1.00105 1.00346 1.00051 1.0024 1.00219 1.00489 1.00215 1.00366 1.00346 1.00291 1.0024 1.00431 1.00489 1.00546 0.999254 1.00068 1.00051 1.0024 0.999257 1.00219 1.00109 1.00087 1.00068 1.00244 1.0024 1.00431 1.00219 1.0031 1.00087 1.00291 1.00051 1.0024 1.00219 1.00489 1.00109 1.00087 1.00363 1.00411 1.0024 1.00431 1.00489 1.00546 1.00087 1.00291 1.00411 1.00608 0.993775 0.993179 0.982796 0.989176 0.99417 0.991613 0.990992 0.984293 0.993179 0.99301 0.989176 0.989271 0.991613 0.991121 0.984293 0.988364 0.982796 0.989176 0.9835 0.969163 0.990992 0.984293 0.979167 0.983361 0.989176 0.989271 0.969163 0.985933 0.984293 0.988364 0.983361 0.976853 0.99417 0.991613 0.990992 0.984293 0.990553 0.990926 0.986791 0.987895 0.991613 0.991121 0.984293 0.988364 0.990926 0.993739 0.987895 0.993086 0.990992 0.984293 0.979167 0.983361 0.986791 0.987895 0.978678 0.984847 0.984293 0.988364 0.983361 0.976853 0.987895 0.993086 0.984847 0.97855 0.99301 0.996104 0.989271 0.994132 0.991121 0.996698 0.988364 0.988684 0.996104 0.998845 0.994132 0.997239 0.996698 0.995484 0.988684 0.993131 0.989271 0.994132 0.985933 0.990671 0.988364 0.988684 0.976853 0.989979 0.994132 0.997239 0.990671 0.993338 0.988684 0.993131 0.989979 0.992857 0.991121 0.996698 0.988364 0.988684 0.993739 0.994648 0.993086 0.987108 0.996698 0.995484 0.988684 0.993131 0.994648 0.99562 0.987108 0.993363 0.988364 0.988684 0.976853 0.989979 0.993086 0.987108 0.97855 0.984765 0.988684 0.993131 0.989979 0.992857 0.987108 0.993363 0.984765 0.989469 0.990553 0.990926 0.986791 0.987895 0.995762 0.993559 0.993538 0.994 0.990926 0.993739 0.987895 0.993086 0.993559 0.994648 0.994 0.987108 0.986791 0.987895 0.978678 0.984847 0.993538 0.994 0.987644 0.9887 0.987895 0.993086 0.984847 0.97855 0.994 0.987108 0.9887 0.984765 0.995762 0.993559 0.993538 0.994 0.998422 0.997277 0.996366 0.995473 0.993559 0.994648 0.994 0.987108 0.997277 0.99562 0.995473 0.993363 0.993538 0.994 0.987644 0.9887 0.996366 0.995473 0.994715 0.992122 0.994 0.987108 0.9887 0.984765 0.995473 0.993363 0.992122 0.989469 0.993775 0.993179 0.99417 0.991613 0.996919 0.996388 0.996418 0.994341 0.993179 0.99301 0.991613 0.991121 0.996388 0.996104 0.994341 0.996698 0.99417 0.991613 0.990553 0.990926 0.996418 0.994341 0.995762 0.993559 0.991613 0.991121 0.990926 0.993739 0.994341 0.996698 0.993559 0.994648 0.996919 0.996388 0.996418 0.994341 0.999257 0.99743 0.998162 0.998057 0.996388 0.996104 0.994341 0.996698 0.99743 0.998845 0.998057 0.995484 0.996418 0.994341 0.995762 0.993559 0.998162 0.998057 0.998422 0.997277 0.994341 0.996698 0.993559 0.994648 0.998057 0.995484 0.997277 0.99562 0.993231 0.993706 0.988054 0.985562 0.990114 0.991616 0.990389 0.988808 0.993706 0.996047 0.985562 0.990604 0.991616 0.990351 0.988808 0.993425 0.988054 0.985562 0.973371 0.985276 0.990389 0.988808 0.980745 0.977695 0.985562 0.990604 0.985276 0.984813 0.988808 0.993425 0.977695 0.986106 0.990114 0.991616 0.990389 0.988808 0.994025 0.991018 0.98923 0.987695 0.991616 0.990351 0.988808 0.993425 0.991018 0.988751 0.987695 0.984736 0.990389 0.988808 0.980745 0.977695 0.98923 0.987695 0.977884 0.982954 0.988808 0.993425 0.977695 0.986106 0.987695 0.984736 0.982954 0.984398 0.996047 0.995968 0.990604 0.990863 0.990351 0.995001 0.993425 0.990375 0.995968 0.998091 0.990863 0.996301 0.995001 0.995968 0.990375 0.993308 0.990604 0.990863 0.984813 0.988265 0.993425 0.990375 0.986106 0.985906 0.990863 0.996301 0.988265 0.995961 0.990375 0.993308 0.985906 0.990202 0.990351 0.995001 0.993425 0.990375 0.988751 0.996059 0.984736 0.988306 0.995001 0.995968 0.990375 0.993308 0.996059 0.995891 0.988306 0.992261 0.993425 0.990375 0.986106 0.985906 0.984736 0.988306 0.984398 0.991025 0.990375 0.993308 0.985906 0.990202 0.988306 0.992261 0.991025 0.993105 0.994025 0.991018 0.98923 0.987695 0.996742 0.993393 0.990165 0.991507 0.991018 0.988751 0.987695 0.984736 0.993393 0.996059 0.991507 0.988306 0.98923 0.987695 0.977884 0.982954 0.990165 0.991507 0.986545 0.982536 0.987695 0.984736 0.982954 0.984398 0.991507 0.988306 0.982536 0.991025 0.996742 0.993393 0.990165 0.991507 0.997351 0.996895 0.995505 0.992887 0.993393 0.996059 0.991507 0.988306 0.996895 0.995891 0.992887 0.992261 0.990165 0.991507 0.986545 0.982536 0.995505 0.992887 0.994444 0.992392 0.991507 0.988306 0.982536 0.991025 0.992887 0.992261 0.992392 0.993105 0.993231 0.993706 0.990114 0.991616 0.997487 0.997812 0.995579 0.993833 0.993706 0.996047 0.991616 0.990351 0.997812 0.995968 0.993833 0.995001 0.990114 0.991616 0.994025 0.991018 0.995579 0.993833 0.996742 0.993393 0.991616 0.990351 0.991018 0.988751 0.993833 0.995001 0.993393 0.996059 0.997487 0.997812 0.995579 0.993833 0.999257 0.998103 0.998486 0.996896 0.997812 0.995968 0.993833 0.995001 0.998103 0.998091 0.996896 0.995968 0.995579 0.993833 0.996742 0.993393 0.998486 0.996896 0.997351 0.996895 0.993833 0.995001 0.993393 0.996059 0.996896 0.995968 0.996895 0.995891 0.997953 1.00023 0.996271 1.00077 1.00063 1.00099 1.00121 1.00271 1.00023 1.00285 1.00077 1.00481 1.00099 1.00346 1.00271 1.00425 0.996271 1.00077 0.997119 1.0005 1.00121 1.00271 1.00081 1.00282 1.00077 1.00481 1.0005 1.00659 1.00271 1.00425 1.00282 1.00897 1.00063 1.00099 1.00121 1.00271 1.00217 1.00299 1.00442 1.00402 1.00099 1.00346 1.00271 1.00425 1.00299 1.00585 1.00402 1.00768 1.00121 1.00271 1.00081 1.00282 1.00442 1.00402 1.00483 1.00677 1.00271 1.00425 1.00282 1.00897 1.00402 1.00768 1.00677 1.00745 1.00285 1.00302 1.00481 1.00526 1.00346 1.00433 1.00425 1.00501 1.00302 1.00341 1.00526 1.00802 1.00433 1.00433 1.00501 1.00526 1.00481 1.00526 1.00659 1.00904 1.00425 1.00501 1.00897 1.01427 1.00526 1.00802 1.00904 1.01244 1.00501 1.00526 1.01427 1.0153 1.00346 1.00433 1.00425 1.00501 1.00585 1.00651 1.00768 1.00714 1.00433 1.00433 1.00501 1.00526 1.00651 1.00783 1.00714 1.00783 1.00425 1.00501 1.00897 1.01427 1.00768 1.00714 1.00745 1.01238 1.00501 1.00526 1.01427 1.0153 1.00714 1.00783 1.01238 1.00623 1.00217 1.00299 1.00442 1.00402 1.0016 1.00482 1.00656 1.00379 1.00299 1.00585 1.00402 1.00768 1.00482 1.00651 1.00379 1.00714 1.00442 1.00402 1.00483 1.00677 1.00656 1.00379 1.00795 1.00907 1.00402 1.00768 1.00677 1.00745 1.00379 1.00714 1.00907 1.01238 1.0016 1.00482 1.00656 1.00379 1.00358 1.00243 1.00799 1.00728 1.00482 1.00651 1.00379 1.00714 1.00243 1.00783 1.00728 1.00783 1.00656 1.00379 1.00795 1.00907 1.00799 1.00728 1.01156 1.01034 1.00379 1.00714 1.00907 1.01238 1.00728 1.00783 1.01034 1.00623 0.997953 1.00023 1.00063 1.00099 0.998658 1.0007 1.00027 1.00146 1.00023 1.00285 1.00099 1.00346 1.0007 1.00302 1.00146 1.00433 1.00063 1.00099 1.00217 1.00299 1.00027 1.00146 1.0016 1.00482 1.00099 1.00346 1.00299 1.00585 1.00146 1.00433 1.00482 1.00651 0.998658 1.0007 1.00027 1.00146 0.999257 1.00137 1.00036 1.00083 1.0007 1.00302 1.00146 1.00433 1.00137 1.00341 1.00083 1.00433 1.00027 1.00146 1.0016 1.00482 1.00036 1.00083 1.00358 1.00243 1.00146 1.00433 1.00482 1.00651 1.00083 1.00433 1.00243 1.00783 1.00256 1.00255 1.00679 1.00709 1.00308 1.00463 1.00635 1.00541 1.00255 1.00192 1.00709 1.00353 1.00463 1.00424 1.00541 1.00519 1.00679 1.00709 1.00792 1.01078 1.00635 1.00541 1.01115 1.00926 1.00709 1.00353 1.01078 1.00457 1.00541 1.00519 1.00926 1.0058 1.00308 1.00463 1.00635 1.00541 1.00619 1.00669 1.00826 1.00831 1.00463 1.00424 1.00541 1.00519 1.00669 1.00533 1.00831 1.00631 1.00635 1.00541 1.01115 1.00926 1.00826 1.00831 1.01169 1.01066 1.00541 1.00519 1.00926 1.0058 1.00831 1.00631 1.01066 1.00678 1.00192 0.999649 1.00353 0.999882 1.00424 1.00193 1.00519 1.00354 0.999649 0.997774 0.999882 0.998173 1.00193 1.0004 1.00354 1.00131 1.00353 0.999882 1.00457 0.999768 1.00519 1.00354 1.0058 1.00445 0.999882 0.998173 0.999768 0.993502 1.00354 1.00131 1.00445 1.00127 1.00424 1.00193 1.00519 1.00354 1.00533 1.00206 1.00631 1.00579 1.00193 1.0004 1.00354 1.00131 1.00206 1.00224 1.00579 1.00416 1.00519 1.00354 1.0058 1.00445 1.00631 1.00579 1.00678 1.00495 1.00354 1.00131 1.00445 1.00127 1.00579 1.00416 1.00495 1.00613 1.00619 1.00669 1.00826 1.00831 1.00534 1.00487 1.0084 1.00557 1.00669 1.00533 1.00831 1.00631 1.00487 1.00206 1.00557 1.00579 1.00826 1.00831 1.01169 1.01066 1.0084 1.00557 1.01295 1.00642 1.00831 1.00631 1.01066 1.00678 1.00557 1.00579 1.00642 1.00495 1.00534 1.00487 1.0084 1.00557 1.00242 1.00315 1.00532 1.00571 1.00487 1.00206 1.00557 1.00579 1.00315 1.00224 1.00571 1.00416 1.0084 1.00557 1.01295 1.00642 1.00532 1.00571 1.01379 1.00798 1.00557 1.00579 1.00642 1.00495 1.00571 1.00416 1.00798 1.00613 1.00256 1.00255 1.00308 1.00463 1.00127 1.00071 1.00305 1.00299 1.00255 1.00192 1.00463 1.00424 1.00071 0.999649 1.00299 1.00193 1.00308 1.00463 1.00619 1.00669 1.00305 1.00299 1.00534 1.00487 1.00463 1.00424 1.00669 1.00533 1.00299 1.00193 1.00487 1.00206 1.00127 1.00071 1.00305 1.00299 0.999257 0.999651 1.00243 1.00118 1.00071 0.999649 1.00299 1.00193 0.999651 0.997774 1.00118 1.0004 1.00305 1.00299 1.00534 1.00487 1.00243 1.00118 1.00242 1.00315 1.00299 1.00193 1.00487 1.00206 1.00118 1.0004 1.00315 1.00224 1.00256 1.00308 1.00679 1.00635 1.00199 1.0009 1.00702 1.0048 1.00308 1.00619 1.00635 1.00826 1.0009 1.00589 1.0048 1.00799 1.00679 1.00635 1.00792 1.01115 1.00702 1.0048 1.00629 1.00499 1.00635 1.00826 1.01115 1.01169 1.0048 1.00799 1.00499 1.00314 1.00199 1.0009 1.00702 1.0048 1.00155 1.00232 1.00388 1.00611 1.0009 1.00589 1.0048 1.00799 1.00232 1.00467 1.00611 1.00805 1.00702 1.0048 1.00629 1.00499 1.00388 1.00611 1.00495 1.00737 1.0048 1.00799 1.00499 1.00314 1.00611 1.00805 1.00737 1.00799 1.00619 1.00534 1.00826 1.0084 1.00589 1.00297 1.00799 1.00509 1.00534 1.00242 1.0084 1.00532 1.00297 1.00353 1.00509 1.00741 1.00826 1.0084 1.01169 1.01295 1.00799 1.00509 1.00314 1.0105 1.0084 1.00532 1.01295 1.01379 1.00509 1.00741 1.0105 1.01152 1.00589 1.00297 1.00799 1.00509 1.00467 1.00292 1.00805 1.00604 1.00297 1.00353 1.00509 1.00741 1.00292 1.0012 1.00604 1.00348 1.00799 1.00509 1.00314 1.0105 1.00805 1.00604 1.00799 1.01175 1.00509 1.00741 1.0105 1.01152 1.00604 1.00348 1.01175 1.00419 1.00155 1.00232 1.00388 1.00611 0.999461 1.0017 0.999512 1.00283 1.00232 1.00467 1.00611 1.00805 1.0017 1.00292 1.00283 1.00604 1.00388 1.00611 1.00495 1.00737 0.999512 1.00283 0.99974 1.00415 1.00611 1.00805 1.00737 1.00799 1.00283 1.00604 1.00415 1.01175 0.999461 1.0017 0.999512 1.00283 0.998422 0.99969 0.996366 1.00014 1.0017 1.00292 1.00283 1.00604 0.99969 1.0012 1.00014 1.00348 0.999512 1.00283 0.99974 1.00415 0.996366 1.00014 0.994715 1.00018 1.00283 1.00604 1.00415 1.01175 1.00014 1.00348 1.00018 1.00419 1.00256 1.00308 1.00199 1.0009 1.00127 1.00305 1.00028 1.00268 1.00308 1.00619 1.0009 1.00589 1.00305 1.00534 1.00268 1.00297 1.00199 1.0009 1.00155 1.00232 1.00028 1.00268 0.999461 1.0017 1.0009 1.00589 1.00232 1.00467 1.00268 1.00297 1.0017 1.00292 1.00127 1.00305 1.00028 1.00268 0.999257 1.00243 0.998162 0.99998 1.00305 1.00534 1.00268 1.00297 1.00243 1.00242 0.99998 1.00353 1.00028 1.00268 0.999461 1.0017 0.998162 0.99998 0.998422 0.99969 1.00268 1.00297 1.0017 1.00292 0.99998 1.00353 0.99969 1.0012 0.997666 1.00052 0.997292 1.00107 1.0005 1.00178 1.00055 1.00303 1.00052 1.00105 1.00107 1.00361 1.00178 1.00446 1.00303 1.00565 0.997292 1.00107 0.99404 1.0009 1.00055 1.00303 0.999703 1.003 1.00107 1.00361 1.0009 1.00923 1.00303 1.00565 1.003 1.00452 1.0005 1.00178 1.00055 1.00303 1.00237 1.00208 1.00399 1.0052 1.00178 1.00446 1.00303 1.00565 1.00208 1.00475 1.0052 1.00683 1.00055 1.00303 0.999703 1.003 1.00399 1.0052 1.00276 1.00725 1.00303 1.00565 1.003 1.00452 1.0052 1.00683 1.00725 1.01318 1.00105 1.00219 1.00361 1.00503 1.00446 1.00238 1.00565 1.00818 1.00219 1.00363 1.00503 1.00501 1.00238 1.00412 1.00818 1.0053 1.00361 1.00503 1.00923 1.01001 1.00565 1.00818 1.00452 1.01399 1.00503 1.00501 1.01001 1.01518 1.00818 1.0053 1.01399 1.00824 1.00446 1.00238 1.00565 1.00818 1.00475 1.00364 1.00683 1.00443 1.00238 1.00412 1.00818 1.0053 1.00364 1.00423 1.00443 1.007 1.00565 1.00818 1.00452 1.01399 1.00683 1.00443 1.01318 1.01103 1.00818 1.0053 1.01399 1.00824 1.00443 1.007 1.01103 1.00737 1.00237 1.00208 1.00399 1.0052 1.00319 1.00461 1.00436 1.00533 1.00208 1.00475 1.0052 1.00683 1.00461 1.00364 1.00533 1.00443 1.00399 1.0052 1.00276 1.00725 1.00436 1.00533 1.01142 1.00769 1.0052 1.00683 1.00725 1.01318 1.00533 1.00443 1.00769 1.01103 1.00319 1.00461 1.00436 1.00533 1.00341 1.00485 1.00802 1.0078 1.00461 1.00364 1.00533 1.00443 1.00485 1.00423 1.0078 1.007 1.00436 1.00533 1.01142 1.00769 1.00802 1.0078 1.01244 1.01251 1.00533 1.00443 1.00769 1.01103 1.0078 1.007 1.01251 1.00737 0.997666 1.00052 1.0005 1.00178 0.999254 1.00051 1.00141 1.00251 1.00052 1.00105 1.00178 1.00446 1.00051 1.00219 1.00251 1.00238 1.0005 1.00178 1.00237 1.00208 1.00141 1.00251 1.00319 1.00461 1.00178 1.00446 1.00208 1.00475 1.00251 1.00238 1.00461 1.00364 0.999254 1.00051 1.00141 1.00251 0.999257 1.00109 1.00137 1.00255 1.00051 1.00219 1.00251 1.00238 1.00109 1.00363 1.00255 1.00412 1.00141 1.00251 1.00319 1.00461 1.00137 1.00255 1.00341 1.00485 1.00251 1.00238 1.00461 1.00364 1.00255 1.00412 1.00485 1.00423 0.997774 0.999935 0.998173 0.999915 1.0004 1.00135 1.00131 1.00303 0.999935 1.00238 0.999915 1.00326 1.00135 1.00134 1.00303 1.00419 0.998173 0.999915 0.993502 0.999754 1.00131 1.00303 1.00127 1.00179 0.999915 1.00326 0.999754 1.00127 1.00303 1.00419 1.00179 1.00115 1.0004 1.00135 1.00131 1.00303 1.00224 1.00147 1.00416 1.00275 1.00135 1.00134 1.00303 1.00419 1.00147 1.00102 1.00275 1.0051 1.00131 1.00303 1.00127 1.00179 1.00416 1.00275 1.00613 1.00605 1.00303 1.00419 1.00179 1.00115 1.00275 1.0051 1.00605 1.00909 1.0031 1.006 1.00874 1.0074 1.00252 1.00349 1.00542 1.00813 1.006 1.00693 1.0074 1.01039 1.00349 1.0059 1.00813 1.00755 1.00874 1.0074 1.01033 1.01072 1.00542 1.00813 1.00796 1.01236 1.0074 1.01039 1.01072 1.01184 1.00813 1.00755 1.01236 1.01043 1.00252 1.00349 1.00542 1.00813 1.00238 1.00134 1.00326 1.00419 1.00349 1.0059 1.00813 1.00755 1.00134 1.00102 1.00419 1.0051 1.00542 1.00813 1.00796 1.01236 1.00326 1.00419 1.00127 1.00115 1.00813 1.00755 1.01236 1.01043 1.00419 1.0051 1.00115 1.00909 1.00242 1.00315 1.00532 1.00571 1.00453 1.00358 1.00682 1.00578 1.00315 1.00224 1.00571 1.00416 1.00358 1.00147 1.00578 1.00275 1.00532 1.00571 1.01379 1.00798 1.00682 1.00578 1.00757 1.01057 1.00571 1.00416 1.00798 1.00613 1.00578 1.00275 1.01057 1.00605 1.00453 1.00358 1.00682 1.00578 1.00693 1.0059 1.01039 1.00755 1.00358 1.00147 1.00578 1.00275 1.0059 1.00102 1.00755 1.0051 1.00682 1.00578 1.00757 1.01057 1.01039 1.00755 1.01184 1.01043 1.00578 1.00275 1.01057 1.00605 1.00755 1.0051 1.01043 1.00909 0.999257 0.999651 1.00243 1.00118 1.00219 1.00052 1.0041 1.00202 0.999651 0.997774 1.00118 1.0004 1.00052 0.999935 1.00202 1.00135 1.00243 1.00118 1.00242 1.00315 1.0041 1.00202 1.00453 1.00358 1.00118 1.0004 1.00315 1.00224 1.00202 1.00135 1.00358 1.00147 1.00219 1.00052 1.0041 1.00202 1.0031 1.00252 1.006 1.00349 1.00052 0.999935 1.00202 1.00135 1.00252 1.00238 1.00349 1.00134 1.0041 1.00202 1.00453 1.00358 1.006 1.00349 1.00693 1.0059 1.00202 1.00135 1.00358 1.00147 1.00349 1.00134 1.0059 1.00102 1.00262 1.00211 1.00387 1.00565 1.00045 1.00262 1.00058 1.00417 1.00211 1.00439 1.00565 1.00693 1.00262 1.00416 1.00417 1.00514 1.00387 1.00565 1.0063 1.00802 1.00058 1.00417 1.0005 1.00452 1.00565 1.00693 1.00802 1.00454 1.00417 1.00514 1.00452 1.00809 1.00045 1.00262 1.00058 1.00417 0.997948 1.00114 0.996183 1.00118 1.00262 1.00416 1.00417 1.00514 1.00114 1.00194 1.00118 1.00535 1.00058 1.00417 1.0005 1.00452 0.996183 1.00118 0.995427 1.00092 1.00417 1.00514 1.00452 1.00809 1.00118 1.00535 1.00092 1.00662 1.00262 1.00359 1.00387 1.0046 1.00211 1.00374 1.00565 1.00667 1.00359 1.00256 1.0046 1.00679 1.00374 1.002 1.00667 1.0068 1.00387 1.0046 1.0063 1.01523 1.00565 1.00667 1.00802 1.0049 1.0046 1.00679 1.01523 1.00792 1.00667 1.0068 1.0049 1.00674 1.00211 1.00374 1.00565 1.00667 1.00439 1.00432 1.00693 1.00652 1.00374 1.002 1.00667 1.0068 1.00432 1.00546 1.00652 1.00607 1.00565 1.00667 1.00802 1.0049 1.00693 1.00652 1.00454 1.00979 1.00667 1.0068 1.0049 1.00674 1.00652 1.00607 1.00979 1.01186 1.00439 1.00432 1.00693 1.00652 1.00416 1.00413 1.00514 1.00767 1.00432 1.00546 1.00652 1.00607 1.00413 1.00366