# vtk DataFile Version 3.0
#This file was generated by the deal.II library on 2025/4/16 at 17:55:11
ASCII
DATASET UNSTRUCTURED_GRID

POINTS 8192 double
-0.353204 5.28139e-05 -0.354105
-0.461626 -0.00165523 -0.298384
-0.528475 -0.0100491 -0.529377
-0.639007 -0.00988133 -0.423978
-0.414018 -0.117288 -0.300091
-0.507535 -0.105752 -0.258418
-0.590971 -0.165803 -0.432116
-0.676812 -0.14449 -0.356264
-0.461626 -0.00165523 -0.298384
-0.568616 4.46463e-05 -0.236113
-0.639007 -0.00988133 -0.423978
-0.743443 -0.00565676 -0.311868
-0.507535 -0.105752 -0.258418
-0.600073 -0.0913515 -0.212463
-0.676812 -0.14449 -0.356264
-0.758958 -0.12064 -0.276889
-0.528475 -0.0100491 -0.529377
-0.639007 -0.00988133 -0.423978
-0.706773 4.32422e-05 -0.707638
-0.821251 -0.00283273 -0.548567
-0.590971 -0.165803 -0.432116
-0.676812 -0.14449 -0.356264
-0.773527 -0.202635 -0.563799
-0.85139 -0.174022 -0.451785
-0.639007 -0.00988133 -0.423978
-0.743443 -0.00565676 -0.311868
-0.821251 -0.00283273 -0.548567
-0.923456 3.93503e-05 -0.383056
-0.676812 -0.14449 -0.356264
-0.758958 -0.12064 -0.276889
-0.85139 -0.174022 -0.451785
-0.922418 -0.142813 -0.337434
-0.414018 -0.117288 -0.300091
-0.507535 -0.105752 -0.258418
-0.590971 -0.165803 -0.432116
-0.676812 -0.14449 -0.356264
-0.471016 -0.235567 -0.236122
-0.550326 -0.211087 -0.211641
-0.644807 -0.319981 -0.320535
-0.708421 -0.279004 -0.279558
-0.507535 -0.105752 -0.258418
-0.600073 -0.0913515 -0.212463
-0.676812 -0.14449 -0.356264
-0.758958 -0.12064 -0.276889
-0.550326 -0.211087 -0.211641
-0.628972 -0.184175 -0.184623
-0.708421 -0.279004 -0.279558
-0.769947 -0.236511 -0.236959
-0.590971 -0.165803 -0.432116
-0.676812 -0.14449 -0.356264
-0.773527 -0.202635 -0.563799
-0.85139 -0.174022 -0.451785
-0.644807 -0.319981 -0.320535
-0.708421 -0.279004 -0.279558
-0.82465 -0.399435 -0.399951
-0.87123 -0.342686 -0.343202
-0.676812 -0.14449 -0.356264
-0.758958 -0.12064 -0.276889
-0.85139 -0.174022 -0.451785
-0.922418 -0.142813 -0.337434
-0.708421 -0.279004 -0.279558
-0.769947 -0.236511 -0.236959
-0.87123 -0.342686 -0.343202
-0.914452 -0.285324 -0.285736
-0.568616 4.46463e-05 -0.236113
-0.536413 -0.00239715 -0.116119
-0.743443 -0.00565676 -0.311868
-0.748895 -0.0104096 -0.159232
-0.600073 -0.0913515 -0.212463
-0.569934 -0.10585 -0.106165
-0.758958 -0.12064 -0.276889
-0.757126 -0.142338 -0.142652
-0.536413 -0.00239715 -0.116119
-0.499515 5.34442e-05 -0.000112545
-0.748895 -0.0104096 -0.159232
-0.745199 -0.00988784 -0.0100538
-0.569934 -0.10585 -0.106165
-0.536396 -0.115797 -0.00255572
-0.757126 -0.142338 -0.142652
-0.748877 -0.15891 -0.0105681
-0.743443 -0.00565676 -0.311868
-0.748895 -0.0104096 -0.159232
-0.923456 3.93503e-05 -0.383056
-0.968901 -0.00328458 -0.190872
-0.758958 -0.12064 -0.276889
-0.757126 -0.142338 -0.142652
-0.922418 -0.142813 -0.337434
-0.95074 -0.169866 -0.170144
-0.748895 -0.0104096 -0.159232
-0.745199 -0.00988784 -0.0100538
-0.968901 -0.00328458 -0.190872
-0.999455 5.58899e-05 -9.70355e-05
-0.757126 -0.142338 -0.142652
-0.748877 -0.15891 -0.0105681
-0.95074 -0.169866 -0.170144
-0.968856 -0.190584 -0.00342682
-0.600073 -0.0913515 -0.212463
-0.569934 -0.10585 -0.106165
-0.758958 -0.12064 -0.276889
-0.757126 -0.142338 -0.142652
-0.628972 -0.184175 -0.184623
-0.600018 -0.211935 -0.0916213
-0.769947 -0.236511 -0.236959
-0.758903 -0.276361 -0.12091
-0.569934 -0.10585 -0.106165
-0.536396 -0.115797 -0.00255572
-0.757126 -0.142338 -0.142652
-0.748877 -0.15891 -0.0105681
-0.600018 -0.211935 -0.0916213
-0.568551 -0.235564 -9.40165e-05
-0.758903 -0.276361 -0.12091
-0.743378 -0.311319 -0.00579542
-0.758958 -0.12064 -0.276889
-0.757126 -0.142338 -0.142652
-0.922418 -0.142813 -0.337434
-0.95074 -0.169866 -0.170144
-0.769947 -0.236511 -0.236959
-0.758903 -0.276361 -0.12091
-0.914452 -0.285324 -0.285736
-0.922339 -0.336936 -0.143048
-0.757126 -0.142338 -0.142652
-0.748877 -0.15891 -0.0105681
-0.95074 -0.169866 -0.170144
-0.968856 -0.190584 -0.00342682
-0.758903 -0.276361 -0.12091
-0.743378 -0.311319 -0.00579542
-0.922339 -0.336936 -0.143048
-0.923349 -0.382532 -8.10642e-05
-0.471016 -0.235567 -0.236122
-0.550326 -0.211087 -0.211641
-0.644807 -0.319981 -0.320535
-0.708421 -0.279004 -0.279558
-0.413961 -0.299327 -0.117612
-0.507478 -0.257654 -0.106076
-0.590914 -0.431352 -0.166127
-0.676755 -0.3555 -0.144814
-0.550326 -0.211087 -0.211641
-0.628972 -0.184175 -0.184623
-0.708421 -0.279004 -0.279558
-0.769947 -0.236511 -0.236959
-0.507478 -0.257654 -0.106076
-0.600018 -0.211935 -0.0916213
-0.676755 -0.3555 -0.144814
-0.758903 -0.276361 -0.12091
-0.644807 -0.319981 -0.320535
-0.708421 -0.279004 -0.279558
-0.82465 -0.399435 -0.399951
-0.87123 -0.342686 -0.343202
-0.590914 -0.431352 -0.166127
-0.676755 -0.3555 -0.144814
-0.773427 -0.563041 -0.202914
-0.85129 -0.451027 -0.174302
-0.708421 -0.279004 -0.279558
-0.769947 -0.236511 -0.236959
-0.87123 -0.342686 -0.343202
-0.914452 -0.285324 -0.285736
-0.676755 -0.3555 -0.144814
-0.758903 -0.276361 -0.12091
-0.85129 -0.451027 -0.174302
-0.922339 -0.336936 -0.143048
-0.413961 -0.299327 -0.117612
-0.507478 -0.257654 -0.106076
-0.590914 -0.431352 -0.166127
-0.676755 -0.3555 -0.144814
-0.353157 -0.35328 -0.000107441
-0.461579 -0.297558 -0.00181549
-0.528429 -0.528551 -0.0102094
-0.638961 -0.423152 -0.0100416
-0.507478 -0.257654 -0.106076
-0.600018 -0.211935 -0.0916213
-0.676755 -0.3555 -0.144814
-0.758903 -0.276361 -0.12091
-0.461579 -0.297558 -0.00181549
-0.568551 -0.235564 -9.40165e-05
-0.638961 -0.423152 -0.0100416
-0.743378 -0.311319 -0.00579542
-0.590914 -0.431352 -0.166127
-0.676755 -0.3555 -0.144814
-0.773427 -0.563041 -0.202914
-0.85129 -0.451027 -0.174302
-0.528429 -0.528551 -0.0102094
-0.638961 -0.423152 -0.0100416
-0.706665 -0.706798 -9.40474e-05
-0.821144 -0.547726 -0.00297002
-0.676755 -0.3555 -0.144814
-0.758903 -0.276361 -0.12091
-0.85129 -0.451027 -0.174302
-0.922339 -0.336936 -0.143048
-0.638961 -0.423152 -0.0100416
-0.743378 -0.311319 -0.00579542
-0.821144 -0.547726 -0.00297002
-0.923349 -0.382532 -8.10642e-05
-0.353204 5.28139e-05 -0.354105
-0.461626 -0.00165523 -0.298384
-0.414018 -0.117288 -0.300091
-0.507535 -0.105752 -0.258418
-0.173826 -0.0144349 -0.174546
-0.353387 -0.0141071 -0.152802
-0.294102 -0.154809 -0.155287
-0.431697 -0.134076 -0.134554
-0.461626 -0.00165523 -0.298384
-0.568616 4.46463e-05 -0.236113
-0.507535 -0.105752 -0.258418
-0.600073 -0.0913515 -0.212463
-0.353387 -0.0141071 -0.152802
-0.536413 -0.00239715 -0.116119
-0.431697 -0.134076 -0.134554
-0.569934 -0.10585 -0.106165
-0.414018 -0.117288 -0.300091
-0.507535 -0.105752 -0.258418
-0.471016 -0.235567 -0.236122
-0.550326 -0.211087 -0.211641
-0.294102 -0.154809 -0.155287
-0.431697 -0.134076 -0.134554
-0.413961 -0.299327 -0.117612
-0.507478 -0.257654 -0.106076
-0.507535 -0.105752 -0.258418
-0.600073 -0.0913515 -0.212463
-0.550326 -0.211087 -0.211641
-0.628972 -0.184175 -0.184623
-0.431697 -0.134076 -0.134554
-0.569934 -0.10585 -0.106165
-0.507478 -0.257654 -0.106076
-0.600018 -0.211935 -0.0916213
-0.173826 -0.0144349 -0.174546
-0.353387 -0.0141071 -0.152802
-0.294102 -0.154809 -0.155287
-0.431697 -0.134076 -0.134554
0.00023805 7.98351e-05 -0.00017054
-0.243558 -0.0125477 -0.012798
-0.173896 -0.174054 -0.0146705
-0.353457 -0.152309 -0.0143426
-0.353387 -0.0141071 -0.152802
-0.536413 -0.00239715 -0.116119
-0.431697 -0.134076 -0.134554
-0.569934 -0.10585 -0.106165
-0.243558 -0.0125477 -0.012798
-0.499515 5.34442e-05 -0.000112545
-0.353457 -0.152309 -0.0143426
-0.536396 -0.115797 -0.00255572
-0.294102 -0.154809 -0.155287
-0.431697 -0.134076 -0.134554
-0.413961 -0.299327 -0.117612
-0.507478 -0.257654 -0.106076
-0.173896 -0.174054 -0.0146705
-0.353457 -0.152309 -0.0143426
-0.353157 -0.35328 -0.000107441
-0.461579 -0.297558 -0.00181549
-0.431697 -0.134076 -0.134554
-0.569934 -0.10585 -0.106165
-0.507478 -0.257654 -0.106076
-0.600018 -0.211935 -0.0916213
-0.353457 -0.152309 -0.0143426
-0.536396 -0.115797 -0.00255572
-0.461579 -0.297558 -0.00181549
-0.568551 -0.235564 -9.40165e-05
0.353286 -2.12366e-05 0.354068
0.410916 0.11764 0.285833
0.537151 -0.0281991 0.537933
0.596495 0.137237 0.402871
0.459726 -0.00427237 0.291603
0.503314 0.102377 0.243534
0.641387 -0.0301372 0.418305
0.677991 0.118458 0.329687
0.410916 0.11764 0.285833
0.471089 0.235598 0.236079
0.596495 0.137237 0.402871
0.660731 0.312161 0.312614
0.503314 0.102377 0.243534
0.548263 0.208374 0.208854
0.677991 0.118458 0.329687
0.717298 0.269607 0.270071
0.537151 -0.0281991 0.537933
0.596495 0.137237 0.402871
0.706865 -1.38713e-05 0.707602
0.757563 0.193304 0.520186
0.641387 -0.0301372 0.418305
0.677991 0.118458 0.329687
0.80763 -0.0161614 0.544989
0.831341 0.161687 0.422234
0.596495 0.137237 0.402871
0.660731 0.312161 0.312614
0.757563 0.193304 0.520186
0.816207 0.408148 0.408535
0.677991 0.118458 0.329687
0.717298 0.269607 0.270071
0.831341 0.161687 0.422234
0.859617 0.346637 0.347042
0.459726 -0.00427237 0.291603
0.503314 0.102377 0.243534
0.641387 -0.0301372 0.418305
0.677991 0.118458 0.329687
0.568689 -2.09209e-05 0.236076
0.598151 0.0930743 0.206248
0.75356 -0.0138384 0.304558
0.76628 0.108318 0.25923
0.503314 0.102377 0.243534
0.548263 0.208374 0.208854
0.677991 0.118458 0.329687
0.717298 0.269607 0.270071
0.598151 0.0930743 0.206248
0.628186 0.185067 0.185446
0.76628 0.108318 0.25923
0.780498 0.229445 0.229822
0.641387 -0.0301372 0.418305
0.677991 0.118458 0.329687
0.80763 -0.0161614 0.544989
0.831341 0.161687 0.422234
0.75356 -0.0138384 0.304558
0.76628 0.108318 0.25923
0.923533 -1.7919e-05 0.383015
0.917177 0.143652 0.323098
0.677991 0.118458 0.329687
0.717298 0.269607 0.270071
0.831341 0.161687 0.422234
0.859617 0.346637 0.347042
0.76628 0.108318 0.25923
0.780498 0.229445 0.229822
0.917177 0.143652 0.323098
0.913584 0.286845 0.287173
0.471089 0.235598 0.236079
0.410839 0.285139 0.11789
0.660731 0.312161 0.312614
0.59642 0.402195 0.137475
0.548263 0.208374 0.208854
0.503237 0.242842 0.102627
0.717298 0.269607 0.270071
0.677915 0.329004 0.1187
0.410839 0.285139 0.11789
0.353209 0.353311 5.469e-05
0.59642 0.402195 0.137475
[...]
POINT_DATA 8192
SCALARS D_0 double 1
LOOKUP_TABLE default
8.77738e-05 7.70349e-05 0.000101742 8.36954e-05 7.73143e-05 7.17794e-05 8.58295e-05 7.72332e-05 7.70349e-05 6.98535e-05 8.36954e-05 7.43988e-05 7.17794e-05 6.83425e-05 7.72332e-05 7.2734e-05 0.000101742 8.36954e-05 8.49267e-05 6.94363e-05 8.58295e-05 7.72332e-05 7.06815e-05 6.5614e-05 8.36954e-05 7.43988e-05 6.94363e-05 6.5485e-05 7.72332e-05 7.2734e-05 6.5614e-05 6.65032e-05 7.73143e-05 7.17794e-05 8.58295e-05 7.72332e-05 6.88018e-05 6.75125e-05 7.37199e-05 7.23913e-05 7.17794e-05 6.83425e-05 7.72332e-05 7.2734e-05 6.75125e-05 6.71117e-05 7.23913e-05 7.12893e-05 8.58295e-05 7.72332e-05 7.06815e-05 6.5614e-05 7.37199e-05 7.23913e-05 6.50053e-05 6.54174e-05 7.72332e-05 7.2734e-05 6.5614e-05 6.65032e-05 7.23913e-05 7.12893e-05 6.54174e-05 6.71445e-05 6.98535e-05 6.08995e-05 7.43988e-05 7.01878e-05 6.83425e-05 6.16193e-05 7.2734e-05 7.00653e-05 6.08995e-05 5.44157e-05 7.01878e-05 6.72406e-05 6.16193e-05 5.67352e-05 7.00653e-05 6.83004e-05 7.43988e-05 7.01878e-05 6.5485e-05 7.05674e-05 7.2734e-05 7.00653e-05 6.65032e-05 7.05017e-05 7.01878e-05 6.72406e-05 7.05674e-05 7.37627e-05 7.00653e-05 6.83004e-05 7.05017e-05 7.26526e-05 6.83425e-05 6.16193e-05 7.2734e-05 7.00653e-05 6.71117e-05 6.26094e-05 7.12893e-05 7.03026e-05 6.16193e-05 5.67352e-05 7.00653e-05 6.83004e-05 6.26094e-05 5.94374e-05 7.03026e-05 6.96989e-05 7.2734e-05 7.00653e-05 6.65032e-05 7.05017e-05 7.12893e-05 7.03026e-05 6.71445e-05 7.06406e-05 7.00653e-05 6.83004e-05 7.05017e-05 7.26526e-05 7.03026e-05 6.96989e-05 7.06406e-05 7.16275e-05 6.88018e-05 6.75125e-05 7.37199e-05 7.23913e-05 5.92371e-05 6.04654e-05 6.89823e-05 6.94638e-05 6.75125e-05 6.71117e-05 7.23913e-05 7.12893e-05 6.04654e-05 6.26094e-05 6.94638e-05 7.03026e-05 7.37199e-05 7.23913e-05 6.50053e-05 6.54174e-05 6.89823e-05 6.94638e-05 6.81383e-05 6.90261e-05 7.23913e-05 7.12893e-05 6.54174e-05 6.71445e-05 6.94638e-05 7.03026e-05 6.90261e-05 7.06406e-05 5.92371e-05 6.04654e-05 6.89823e-05 6.94638e-05 5.40994e-05 5.65e-05 6.6799e-05 6.74441e-05 6.04654e-05 6.26094e-05 6.94638e-05 7.03026e-05 5.65e-05 5.94374e-05 6.74441e-05 6.96989e-05 6.89823e-05 6.94638e-05 6.81383e-05 6.90261e-05 6.6799e-05 6.74441e-05 7.36565e-05 7.16351e-05 6.94638e-05 7.03026e-05 6.90261e-05 7.06406e-05 6.74441e-05 6.96989e-05 7.16351e-05 7.16275e-05 8.77738e-05 7.70349e-05 7.73143e-05 7.17794e-05 5.06745e-05 5.45533e-05 5.34871e-05 5.73109e-05 7.70349e-05 6.98535e-05 7.17794e-05 6.83425e-05 5.45533e-05 6.08995e-05 5.73109e-05 6.16193e-05 7.73143e-05 7.17794e-05 6.88018e-05 6.75125e-05 5.34871e-05 5.73109e-05 5.92371e-05 6.04654e-05 7.17794e-05 6.83425e-05 6.75125e-05 6.71117e-05 5.73109e-05 6.16193e-05 6.04654e-05 6.26094e-05 5.06745e-05 5.45533e-05 5.34871e-05 5.73109e-05 4.61042e-06 3.07645e-05 3.11102e-05 4.41549e-05 5.45533e-05 6.08995e-05 5.73109e-05 6.16193e-05 3.07645e-05 5.44157e-05 4.41549e-05 5.67352e-05 5.34871e-05 5.73109e-05 5.92371e-05 6.04654e-05 3.11102e-05 4.41549e-05 5.40994e-05 5.65e-05 5.73109e-05 6.16193e-05 6.04654e-05 6.26094e-05 4.41549e-05 5.67352e-05 5.65e-05 5.94374e-05 8.10083e-05 6.76554e-05 9.38793e-05 7.44898e-05 6.87742e-05 6.21465e-05 7.42573e-05 6.64651e-05 6.76554e-05 5.9824e-05 7.44898e-05 6.16678e-05 6.21465e-05 5.82732e-05 6.64651e-05 6.12723e-05 9.38793e-05 7.44898e-05 7.95428e-05 5.98163e-05 7.42573e-05 6.64651e-05 6.12003e-05 5.48428e-05 7.44898e-05 6.16678e-05 5.98163e-05 5.10879e-05 6.64651e-05 6.12723e-05 5.48428e-05 5.37974e-05 6.87742e-05 6.21465e-05 7.42573e-05 6.64651e-05 6.1655e-05 5.94884e-05 6.4207e-05 6.235e-05 6.21465e-05 5.82732e-05 6.64651e-05 6.12723e-05 5.94884e-05 5.8307e-05 6.235e-05 6.11587e-05 7.42573e-05 6.64651e-05 6.12003e-05 5.48428e-05 6.4207e-05 6.235e-05 5.41132e-05 5.59129e-05 6.64651e-05 6.12723e-05 5.48428e-05 5.37974e-05 6.235e-05 6.11587e-05 5.59129e-05 5.6131e-05 5.9824e-05 5.02278e-05 6.16678e-05 5.80131e-05 5.82732e-05 5.18714e-05 6.12723e-05 6.00199e-05 5.02278e-05 4.74547e-05 5.80131e-05 5.98715e-05 5.18714e-05 4.95521e-05 6.00199e-05 6.14896e-05 6.16678e-05 5.80131e-05 5.10879e-05 5.74007e-05 6.12723e-05 6.00199e-05 5.37974e-05 6.0536e-05 5.80131e-05 5.98715e-05 5.74007e-05 6.47394e-05 6.00199e-05 6.14896e-05 6.0536e-05 6.50349e-05 5.82732e-05 5.18714e-05 6.12723e-05 6.00199e-05 5.8307e-05 5.49746e-05 6.11587e-05 6.24144e-05 5.18714e-05 4.95521e-05 6.00199e-05 6.14896e-05 5.49746e-05 5.33569e-05 6.24144e-05 6.44261e-05 6.12723e-05 6.00199e-05 5.37974e-05 6.0536e-05 6.11587e-05 6.24144e-05 5.6131e-05 6.245e-05 6.00199e-05 6.14896e-05 6.0536e-05 6.50349e-05 6.24144e-05 6.44261e-05 6.245e-05 6.71185e-05 6.1655e-05 5.94884e-05 6.4207e-05 6.235e-05 5.35578e-05 5.36665e-05 6.15436e-05 6.12358e-05 5.94884e-05 5.8307e-05 6.235e-05 6.11587e-05 5.36665e-05 5.49746e-05 6.12358e-05 6.24144e-05 6.4207e-05 6.235e-05 5.41132e-05 5.59129e-05 6.15436e-05 6.12358e-05 6.12695e-05 6.21273e-05 6.235e-05 6.11587e-05 5.59129e-05 5.6131e-05 6.12358e-05 6.24144e-05 6.21273e-05 6.245e-05 5.35578e-05 5.36665e-05 6.15436e-05 6.12358e-05 4.82167e-05 5.04329e-05 6.1548e-05 6.28777e-05 5.36665e-05 5.49746e-05 6.12358e-05 6.24144e-05 5.04329e-05 5.33569e-05 6.28777e-05 6.44261e-05 6.15436e-05 6.12358e-05 6.12695e-05 6.21273e-05 6.1548e-05 6.28777e-05 6.66112e-05 6.70323e-05 6.12358e-05 6.24144e-05 6.21273e-05 6.245e-05 6.28777e-05 6.44261e-05 6.70323e-05 6.71185e-05 8.10083e-05 6.76554e-05 6.87742e-05 6.21465e-05 4.63144e-05 4.20784e-05 4.61054e-05 4.7101e-05 6.76554e-05 5.9824e-05 6.21465e-05 5.82732e-05 4.20784e-05 5.02278e-05 4.7101e-05 5.18714e-05 6.87742e-05 6.21465e-05 6.1655e-05 5.94884e-05 4.61054e-05 4.7101e-05 5.35578e-05 5.36665e-05 6.21465e-05 5.82732e-05 5.94884e-05 5.8307e-05 4.7101e-05 5.18714e-05 5.36665e-05 5.49746e-05 4.63144e-05 4.20784e-05 4.61054e-05 4.7101e-05 4.61042e-06 2.59754e-05 2.53148e-05 3.79365e-05 4.20784e-05 5.02278e-05 4.7101e-05 5.18714e-05 2.59754e-05 4.74547e-05 3.79365e-05 4.95521e-05 4.61054e-05 4.7101e-05 5.35578e-05 5.36665e-05 2.53148e-05 3.79365e-05 4.82167e-05 5.04329e-05 4.7101e-05 5.18714e-05 5.36665e-05 5.49746e-05 3.79365e-05 4.95521e-05 5.04329e-05 5.33569e-05 0.000108896 0.000112677 0.000134732 0.000131921 0.000113027 0.000116163 0.000131357 0.000129466 0.000112677 0.000114196 0.000131921 0.000123559 0.000116163 0.000116788 0.000129466 0.000124249 0.000134732 0.000131921 0.000135572 0.000133268 0.000131357 0.000129466 0.000132568 0.000130998 0.000131921 0.000123559 0.000133268 0.000122643 0.000129466 0.000124249 0.000130998 0.000120391 0.000113027 0.000116163 0.000131357 0.000129466 0.000113412 0.000116509 0.000123165 0.000124699 0.000116163 0.000116788 0.000129466 0.000124249 0.000116509 0.000117129 0.000124699 0.000121746 0.000131357 0.000129466 0.000132568 0.000130998 0.000123165 0.000124699 0.00012056 0.000120955 0.000129466 0.000124249 0.000130998 0.000120391 0.000124699 0.000121746 0.000120955 0.000117683 0.000114196 9.95531e-05 0.000123559 0.000111238 0.000116788 0.000104852 0.000124249 0.000114641 9.95531e-05 8.26213e-05 0.000111238 9.49962e-05 0.000104852 9.0449e-05 0.000114641 0.000102487 0.000123559 0.000111238 0.000122643 0.000101213 0.000124249 0.000114641 0.000120391 0.000106482 0.000111238 9.49962e-05 0.000101213 8.12933e-05 0.000114641 0.000102487 0.000106482 9.06604e-05 0.000116788 0.000104852 0.000124249 0.000114641 0.000117129 0.000108111 0.000121746 0.000114252 0.000104852 9.0449e-05 0.000114641 0.000102487 0.000108111 9.75317e-05 0.000114252 0.000106057 0.000124249 0.000114641 0.000120391 0.000106482 0.000121746 0.000114252 0.000117683 0.000107621 0.000114641 0.000102487 0.000106482 9.06604e-05 0.000114252 0.000106057 0.000107621 9.47036e-05 0.000113412 0.000116509 0.000123165 0.000124699 9.77796e-05 0.000103518 0.000110729 0.000114845 0.000116509 0.000117129 0.000124699 0.000121746 0.000103518 0.000108111 0.000114845 0.000114252 0.000123165 0.000124699 0.00012056 0.000120955 0.000110729 0.000114845 0.000101421 0.000106674 0.000124699 0.000121746 0.000120955 0.000117683 0.000114845 0.000114252 0.000106674 0.000107621 9.77796e-05 0.000103518 0.000110729 0.000114845 8.04659e-05 8.82495e-05 9.32293e-05 0.000101245 0.000103518 0.000108111 0.000114845 0.000114252 8.82495e-05 9.75317e-05 0.000101245 0.000106057 0.000110729 0.000114845 0.000101421 0.000106674 9.32293e-05 0.000101245 7.84581e-05 8.87025e-05 0.000114845 0.000114252 0.000106674 0.000107621 0.000101245 0.000106057 8.87025e-05 9.47036e-05 0.000108896 0.000112677 0.000113027 0.000116163 6.13725e-05 8.18832e-05 8.22368e-05 9.42986e-05 0.000112677 0.000114196 0.000116163 0.000116788 8.18832e-05 9.95531e-05 9.42986e-05 0.000104852 0.000113027 0.000116163 0.000113412 0.000116509 8.22368e-05 9.42986e-05 9.77796e-05 0.000103518 0.000116163 0.000116788 0.000116509 0.000117129 9.42986e-05 0.000104852 0.000103518 0.000108111 6.13725e-05 8.18832e-05 8.22368e-05 9.42986e-05 4.61042e-06 4.51795e-05 4.63632e-05 6.83398e-05 8.18832e-05 9.95531e-05 9.42986e-05 0.000104852 4.51795e-05 8.26213e-05 6.83398e-05 9.0449e-05 8.22368e-05 9.42986e-05 9.77796e-05 0.000103518 4.63632e-05 6.83398e-05 8.04659e-05 8.82495e-05 9.42986e-05 0.000104852 0.000103518 0.000108111 6.83398e-05 9.0449e-05 8.82495e-05 9.75317e-05 0.000116394 0.000121056 0.000146449 0.000142344 0.000120841 0.00012464 0.000142234 0.00014055 0.000121056 0.000121235 0.000142344 0.000131867 0.00012464 0.000124903 0.00014055 0.00013314 0.000146449 0.000142344 0.000148792 0.000146342 0.000142234 0.00014055 0.000143173 0.000141395 0.000142344 0.000131867 0.000146342 0.000129578 0.00014055 0.00013314 0.000141395 0.000130575 0.000120841 0.00012464 0.000142234 0.00014055 0.00012065 0.000124598 0.000132142 0.000134418 0.00012464 0.000124903 0.00014055 0.00013314 0.000124598 0.000125404 0.000134418 0.000131489 0.000142234 0.00014055 0.000143173 0.000141395 0.000132142 0.000134418 0.000129091 0.000132686 0.00014055 0.00013314 0.000141395 0.000130575 0.000134418 0.000131489 0.000132686 0.000125848 0.000121235 0.000104854 0.000131867 0.00011814 0.000124903 0.000111539 0.00013314 0.000123127 0.000104854 8.64208e-05 0.00011814 0.000100943 0.000111539 9.61376e-05 0.000123127 0.000110295 0.000131867 0.00011814 0.000129578 0.000106894 0.00013314 0.000123127 0.000130575 0.000114699 0.00011814 0.000100943 0.000106894 8.65916e-05 0.000123127 0.000110295 0.000114699 9.79847e-05 0.000124903 0.000111539 0.00013314 0.000123127 0.000125404 0.000115041 0.000131489 0.000123921 0.000111539 9.61376e-05 0.000123127 0.000110295 0.000115041 0.00010309 0.000123921 0.000115082 0.00013314 0.000123127 0.000130575 0.000114699 0.000131489 0.000123921 0.000125848 0.000116887 0.000123127 0.000110295 0.000114699 9.79847e-05 0.000123921 0.000115082 0.000116887 0.000103731 0.00012065 0.000124598 0.000132142 0.000134418 0.000103907 0.000110872 0.000117752 0.000124476 0.000124598 0.000125404 0.000134418 0.000131489 0.000110872 0.000115041 0.000124476 0.000123921 0.000132142 0.000134418 0.000129091 0.000132686 0.000117752 0.000124476 0.000107695 0.000117553 0.000134418 0.000131489 0.000132686 0.000125848 0.000124476 0.000123921 0.000117553 0.000116887 0.000103907 0.000110872 0.000117752 0.000124476 8.52402e-05 9.52482e-05 0.000101564 0.000111365 0.000110872 0.000115041 0.000124476 0.000123921 9.52482e-05 0.00010309 0.000111365 0.000115082 0.000117752 0.000124476 0.000107695 0.000117553 0.000101564 0.000111365 8.46392e-05 0.000101079 0.000124476 0.000123921 0.000117553 0.000116887 0.000111365 0.000115082 0.000101079 0.000103731 0.000116394 0.000121056 0.000120841 0.00012464 6.32615e-05 8.68699e-05 8.71692e-05 0.000101505 0.000121056 0.000121235 0.00012464 0.000124903 8.68699e-05 0.000104854 0.000101505 0.000111539 0.000120841 0.00012464 0.00012065 0.000124598 8.71692e-05 0.000101505 0.000103907 0.000110872 0.00012464 0.000124903 0.000124598 0.000125404 0.000101505 0.000111539 0.000110872 0.000115041 6.32615e-05 8.68699e-05 8.71692e-05 0.000101505 4.61042e-06 4.92471e-05 5.00553e-05 7.49287e-05 8.68699e-05 0.000104854 0.000101505 0.000111539 4.92471e-05 8.64208e-05 7.49287e-05 9.61376e-05 8.71692e-05 0.000101505 0.000103907 0.000110872 5.00553e-05 7.49287e-05 8.52402e-05 9.52482e-05 0.000101505 0.000111539 0.000110872 0.000115041 7.49287e-05 9.61376e-05 9.52482e-05 0.00010309 8.28885e-05 7.17456e-05 9.52059e-05 8.00021e-05 7.25736e-05 6.69214e-05 7.87128e-05 7.25435e-05 7.17456e-05 6.38596e-05 8.00021e-05 6.85977e-05 6.69214e-05 6.28997e-05 7.25435e-05 6.76349e-05 9.52059e-05 8.00021e-05 8.25475e-05 6.65014e-05 7.87128e-05 7.25435e-05 6.65788e-05 6.1878e-05 8.00021e-05 6.85977e-05 6.65014e-05 5.90008e-05 7.25435e-05 6.76349e-05 6.1878e-05 6.04585e-05 7.25736e-05 6.69214e-05 7.87128e-05 7.25435e-05 6.60682e-05 6.43656e-05 7.02434e-05 6.8929e-05 6.69214e-05 6.28997e-05 7.25435e-05 6.76349e-05 6.43656e-05 6.31907e-05 6.8929e-05 6.72504e-05 7.87128e-05 7.25435e-05 6.65788e-05 6.1878e-05 7.02434e-05 6.8929e-05 6.18611e-05 6.3055e-05 7.25435e-05 6.76349e-05 6.1878e-05 6.04585e-05 6.8929e-05 6.72504e-05 6.3055e-05 6.3011e-05 6.38596e-05 5.33054e-05 6.85977e-05 6.24982e-05 6.28997e-05 5.51275e-05 6.76349e-05 6.43153e-05 5.33054e-05 4.91217e-05 6.24982e-05 6.12699e-05 5.51275e-05 5.1558e-05 6.43153e-05 6.2861e-05 6.85977e-05 6.24982e-05 5.90008e-05 6.21937e-05 6.76349e-05 6.43153e-05 6.04585e-05 6.48259e-05 6.24982e-05 6.12699e-05 6.21937e-05 6.71045e-05 6.43153e-05 6.2861e-05 6.48259e-05 6.74387e-05 6.28997e-05 5.51275e-05 6.76349e-05 6.43153e-05 6.31907e-05 5.86042e-05 6.72504e-05 6.69785e-05 5.51275e-05 5.1558e-05 6.43153e-05 6.2861e-05 5.86042e-05 5.56922e-05 6.69785e-05 6.6275e-05 6.76349e-05 6.43153e-05 6.04585e-05 6.48259e-05 6.72504e-05 6.69785e-05 6.3011e-05 6.67743e-05 6.43153e-05 6.2861e-05 6.48259e-05 6.74387e-05 6.69785e-05 6.6275e-05 6.67743e-05 6.96959e-05 6.60682e-05 6.43656e-05 7.02434e-05 6.8929e-05 5.7673e-05 5.78869e-05 6.68045e-05 6.65833e-05 6.43656e-05 6.31907e-05 6.8929e-05 6.72504e-05 5.78869e-05 5.86042e-05 6.65833e-05 6.69785e-05 7.02434e-05 6.8929e-05 6.18611e-05 6.3055e-05 6.68045e-05 6.65833e-05 6.70715e-05 6.87657e-05 6.8929e-05 6.72504e-05 6.3055e-05 6.3011e-05 6.65833e-05 6.69785e-05 6.87657e-05 6.67743e-05 5.7673e-05 5.78869e-05 6.68045e-05 6.65833e-05 5.18592e-05 5.34629e-05 6.44725e-05 6.57139e-05 5.78869e-05 5.86042e-05 6.65833e-05 6.69785e-05 5.34629e-05 5.56922e-05 6.57139e-05 6.6275e-05 6.68045e-05 6.65833e-05 6.70715e-05 6.87657e-05 6.44725e-05 6.57139e-05 7.10541e-05 7.07499e-05 6.65833e-05 6.69785e-05 6.87657e-05 6.67743e-05 6.57139e-05 6.6275e-05 7.07499e-05 6.96959e-05 8.28885e-05 7.17456e-05 7.25736e-05 6.69214e-05 4.48731e-05 4.55862e-05 4.87823e-05 5.11536e-05 7.17456e-05 6.38596e-05 6.69214e-05 6.28997e-05 4.55862e-05 5.33054e-05 5.11536e-05 5.51275e-05 7.25736e-05 6.69214e-05 6.60682e-05 6.43656e-05 4.87823e-05 5.11536e-05 5.7673e-05 5.78869e-05 6.69214e-05 6.28997e-05 6.43656e-05 6.31907e-05 5.11536e-05 5.51275e-05 5.78869e-05 5.86042e-05 4.48731e-05 4.55862e-05 4.87823e-05 5.11536e-05 4.61042e-06 2.60402e-05 2.83992e-05 3.98712e-05 4.55862e-05 5.33054e-05 5.11536e-05 5.51275e-05 2.60402e-05 4.91217e-05 3.98712e-05 5.1558e-05 4.87823e-05 5.11536e-05 5.7673e-05 5.78869e-05 2.83992e-05 3.98712e-05 5.18592e-05 5.34629e-05 5.11536e-05 5.51275e-05 5.78869e-05 5.86042e-05 3.98712e-05 5.1558e-05 5.34629e-05 5.56922e-05 5.20033e-05 5.74129e-05 6.29195e-05 6.5857e-05 5.36787e-05 5.82733e-05 6.37932e-05 6.66594e-05 5.74129e-05 6.76802e-05 6.5857e-05 7.32657e-05 5.82733e-05 6.61624e-05 6.66594e-05 7.08472e-05 6.29195e-05 6.5857e-05 6.71754e-05 6.51878e-05 6.37932e-05 6.66594e-05 6.70995e-05 6.60149e-05 6.5857e-05 7.32657e-05 6.51878e-05 6.25705e-05 6.66594e-05 7.08472e-05 6.60149e-05 6.2941e-05 5.36787e-05 5.82733e-05 6.37932e-05 6.66594e-05 5.65015e-05 6.0007e-05 6.69633e-05 6.73266e-05 5.82733e-05 6.61624e-05 6.66594e-05 7.08472e-05 6.0007e-05 6.52602e-05 6.73266e-05 6.92057e-05 6.37932e-05 6.66594e-05 6.70995e-05 6.60149e-05 6.69633e-05 6.73266e-05 6.78379e-05 6.76962e-05 6.66594e-05 7.08472e-05 6.60149e-05 6.2941e-05 6.73266e-05 6.92057e-05 6.76962e-05 6.38189e-05 6.76802e-05 7.66669e-05 7.32657e-05 8.78675e-05 6.61624e-05 7.06158e-05 7.08472e-05 7.75386e-05 7.66669e-05 8.71666e-05 8.78675e-05 0.000103859 7.06158e-05 7.5886e-05 7.75386e-05 8.41797e-05 7.32657e-05 8.78675e-05 6.25705e-05 7.28798e-05 7.08472e-05 7.75386e-05 6.2941e-05 6.52208e-05 8.78675e-05 0.000103859 7.28798e-05 8.80881e-05 7.75386e-05 8.41797e-05 6.52208e-05 7.01844e-05 6.61624e-05 7.06158e-05 7.08472e-05 7.75386e-05 6.52602e-05 6.6697e-05 6.92057e-05 7.19934e-05 7.06158e-05 7.5886e-05 7.75386e-05 8.41797e-05 6.6697e-05 6.80946e-05 7.19934e-05 7.37065e-05 7.08472e-05 7.75386e-05 6.2941e-05 6.52208e-05 6.92057e-05 7.19934e-05 6.38189e-05 6.44989e-05 7.75386e-05 8.41797e-05 6.52208e-05 7.01844e-05 7.19934e-05 7.37065e-05 6.44989e-05 6.48345e-05 5.65015e-05 6.0007e-05 6.69633e-05 6.73266e-05 5.31177e-05 5.88611e-05 6.50334e-05 6.76887e-05 6.0007e-05 6.52602e-05 6.73266e-05 6.92057e-05 5.88611e-05 6.6697e-05 6.76887e-05 7.19934e-05 6.69633e-05 6.73266e-05 6.78379e-05 6.76962e-05 6.50334e-05 6.76887e-05 6.95149e-05 6.82241e-05 6.73266e-05 6.92057e-05 6.76962e-05 6.38189e-05 6.76887e-05 7.19934e-05 6.82241e-05 6.44989e-05 5.31177e-05 5.88611e-05 6.50334e-05 6.76887e-05 5.01918e-05 5.77843e-05 6.35843e-05 6.82128e-05 5.88611e-05 6.6697e-05 6.76887e-05 7.19934e-05 5.77843e-05 6.80946e-05 6.82128e-05 7.37065e-05 6.50334e-05 6.76887e-05 6.95149e-05 6.82241e-05 6.35843e-05 6.82128e-05 6.87502e-05 6.86489e-05 6.76887e-05 7.19934e-05 6.82241e-05 6.44989e-05 6.82128e-05 7.37065e-05 6.86489e-05 6.48345e-05 5.20033e-05 5.74129e-05 5.36787e-05 5.82733e-05 2.96996e-05 5.26093e-05 4.13866e-05 5.54342e-05 5.74129e-05 6.76802e-05 5.82733e-05 6.61624e-05 5.26093e-05 7.66669e-05 5.54342e-05 7.06158e-05 5.36787e-05 5.82733e-05 5.65015e-05 6.0007e-05 4.13866e-05 5.54342e-05 5.31177e-05 5.88611e-05 5.82733e-05 6.61624e-05 6.0007e-05 6.52602e-05 5.54342e-05 7.06158e-05 5.88611e-05 6.6697e-05 2.96996e-05 5.26093e-05 4.13866e-05 5.54342e-05 4.61042e-06 5.16547e-05 2.80179e-05 5.31166e-05 5.26093e-05 7.66669e-05 5.54342e-05 7.06158e-05 5.16547e-05 8.71666e-05 5.31166e-05 7.5886e-05 4.13866e-05 5.54342e-05 5.31177e-05 5.88611e-05 2.80179e-05 5.31166e-05 5.01918e-05 5.77843e-05 5.54342e-05 7.06158e-05 5.88611e-05 6.6697e-05 5.31166e-05 7.5886e-05 5.77843e-05 6.80946e-05 5.20033e-05 5.36787e-05 6.29195e-05 6.37932e-05 5.48851e-05 5.62135e-05 6.36216e-05 6.48556e-05 5.36787e-05 5.65015e-05 6.37932e-05 6.69633e-05 5.62135e-05 5.84717e-05 6.48556e-05 6.64976e-05 6.29195e-05 6.37932e-05 6.71754e-05 6.70995e-05 6.36216e-05 6.48556e-05 6.67609e-05 6.74975e-05 6.37932e-05 6.69633e-05 6.70995e-05 6.78379e-05 6.48556e-05 6.64976e-05 6.74975e-05 6.83403e-05 5.48851e-05 5.62135e-05 6.36216e-05 6.48556e-05 6.28375e-05 6.16937e-05 6.84494e-05 6.7733e-05 5.62135e-05 5.84717e-05 6.48556e-05 6.64976e-05 6.16937e-05 6.19928e-05 6.7733e-05 6.68331e-05 6.36216e-05 6.48556e-05 6.67609e-05 6.74975e-05 6.84494e-05 6.7733e-05 6.10258e-05 6.19442e-05 6.48556e-05 6.64976e-05 6.74975e-05 6.83403e-05 6.7733e-05 6.68331e-05 6.19442e-05 6.30205e-05 5.65015e-05 5.31177e-05 6.69633e-05 6.50334e-05 5.84717e-05 5.59619e-05 6.64976e-05 6.49326e-05 5.31177e-05 5.01918e-05 6.50334e-05 6.35843e-05 5.59619e-05 5.4739e-05 6.49326e-05 6.43087e-05 6.69633e-05 6.50334e-05 6.78379e-05 6.95149e-05 6.64976e-05 6.49326e-05 6.83403e-05 6.72893e-05 6.50334e-05 6.35843e-05 6.95149e-05 6.87502e-05 6.49326e-05 6.43087e-05 6.72893e-05 6.58782e-05 5.84717e-05 5.59619e-05 6.64976e-05 6.49326e-05 6.19928e-05 6.15523e-05 6.68331e-05 6.6828e-05 5.59619e-05 5.4739e-05 6.49326e-05 6.43087e-05 6.15523e-05 6.21727e-05 6.6828e-05 6.6618e-05 6.64976e-05 6.49326e-05 6.83403e-05 6.72893e-05 6.68331e-05 6.6828e-05 6.30205e-05 6.18934e-05 6.49326e-05 6.43087e-05 6.72893e-05 6.58782e-05 6.6828e-05 6.6618e-05 6.18934e-05 5.91588e-05 6.28375e-05 6.16937e-05 6.84494e-05 6.7733e-05 6.95023e-05 6.37352e-05 7.91441e-05 7.03771e-05 6.16937e-05 6.19928e-05 6.7733e-05 6.68331e-05 6.37352e-05 6.15523e-05 7.