# vtk DataFile Version 3.0
#This file was generated by the deal.II library on 2025/4/17 at 14:11:11
ASCII
DATASET UNSTRUCTURED_GRID

POINTS 8192 double
-0.353378 2.58637e-05 -0.353829
-0.4618 -0.00168218 -0.298107
-0.52865 -0.0100761 -0.5291
-0.639182 -0.00990828 -0.423701
-0.414192 -0.117315 -0.299815
-0.507709 -0.105779 -0.258142
-0.591145 -0.16583 -0.43184
-0.676986 -0.144517 -0.355988
-0.4618 -0.00168218 -0.298107
-0.568826 2.17656e-05 -0.235907
-0.639182 -0.00990828 -0.423701
-0.743652 -0.00567964 -0.311662
-0.507709 -0.105779 -0.258142
-0.600283 -0.0913744 -0.212258
-0.676986 -0.144517 -0.355988
-0.759167 -0.120663 -0.276684
-0.52865 -0.0100761 -0.5291
-0.639182 -0.00990828 -0.423701
-0.706939 2.10324e-05 -0.707372
-0.821417 -0.00285494 -0.548301
-0.591145 -0.16583 -0.43184
-0.676986 -0.144517 -0.355988
-0.773693 -0.202657 -0.563533
-0.851556 -0.174045 -0.451519
-0.639182 -0.00990828 -0.423701
-0.743652 -0.00567964 -0.311662
-0.821417 -0.00285494 -0.548301
-0.923667 1.91012e-05 -0.382869
-0.676986 -0.144517 -0.355988
-0.759167 -0.120663 -0.276684
-0.851556 -0.174045 -0.451519
-0.922629 -0.142834 -0.337248
-0.414192 -0.117315 -0.299815
-0.507709 -0.105779 -0.258142
-0.591145 -0.16583 -0.43184
-0.676986 -0.144517 -0.355988
-0.47121 -0.235635 -0.235912
-0.550519 -0.211155 -0.211432
-0.645001 -0.320049 -0.320325
-0.708615 -0.279072 -0.279348
-0.507709 -0.105779 -0.258142
-0.600283 -0.0913744 -0.212258
-0.676986 -0.144517 -0.355988
-0.759167 -0.120663 -0.276684
-0.550519 -0.211155 -0.211432
-0.629192 -0.184233 -0.184456
-0.708615 -0.279072 -0.279348
-0.770167 -0.23657 -0.236793
-0.591145 -0.16583 -0.43184
-0.676986 -0.144517 -0.355988
-0.773693 -0.202657 -0.563533
-0.851556 -0.174045 -0.451519
-0.645001 -0.320049 -0.320325
-0.708615 -0.279072 -0.279348
-0.824846 -0.3995 -0.399758
-0.871425 -0.342752 -0.343009
-0.676986 -0.144517 -0.355988
-0.759167 -0.120663 -0.276684
-0.851556 -0.174045 -0.451519
-0.922629 -0.142834 -0.337248
-0.708615 -0.279072 -0.279348
-0.770167 -0.23657 -0.236793
-0.871425 -0.342752 -0.343009
-0.914677 -0.285383 -0.285588
-0.568826 2.17656e-05 -0.235907
-0.536647 -0.00242068 -0.115985
-0.743652 -0.00567964 -0.311662
-0.749128 -0.0104331 -0.159098
-0.600283 -0.0913744 -0.212258
-0.570168 -0.105874 -0.10603
-0.759167 -0.120663 -0.276684
-0.75736 -0.142362 -0.142518
-0.536647 -0.00242068 -0.115985
-0.499757 2.6264e-05 -5.59932e-05
-0.749128 -0.0104331 -0.159098
-0.745441 -0.00991502 -0.00999728
-0.570168 -0.105874 -0.10603
-0.536638 -0.115825 -0.00249917
-0.75736 -0.142362 -0.142518
-0.74912 -0.158938 -0.0105116
-0.743652 -0.00567964 -0.311662
-0.749128 -0.0104331 -0.159098
-0.923667 1.91012e-05 -0.382869
-0.969151 -0.00330772 -0.190756
-0.759167 -0.120663 -0.276684
-0.75736 -0.142362 -0.142518
-0.922629 -0.142834 -0.337248
-0.95099 -0.169889 -0.170027
-0.749128 -0.0104331 -0.159098
-0.745441 -0.00991502 -0.00999728
-0.969151 -0.00330772 -0.190756
-0.999727 2.74548e-05 -4.82227e-05
-0.75736 -0.142362 -0.142518
-0.74912 -0.158938 -0.0105116
-0.95099 -0.169889 -0.170027
-0.969129 -0.190612 -0.00337801
-0.600283 -0.0913744 -0.212258
-0.570168 -0.105874 -0.10603
-0.759167 -0.120663 -0.276684
-0.75736 -0.142362 -0.142518
-0.629192 -0.184233 -0.184456
-0.600255 -0.211994 -0.0915084
-0.770167 -0.23657 -0.236793
-0.75914 -0.27642 -0.120797
-0.570168 -0.105874 -0.10603
-0.536638 -0.115825 -0.00249917
-0.75736 -0.142362 -0.142518
-0.74912 -0.158938 -0.0105116
-0.600255 -0.211994 -0.0915084
-0.568793 -0.235633 -4.68126e-05
-0.75914 -0.27642 -0.120797
-0.74362 -0.311389 -0.00574822
-0.759167 -0.120663 -0.276684
-0.75736 -0.142362 -0.142518
-0.922629 -0.142834 -0.337248
-0.95099 -0.169889 -0.170027
-0.770167 -0.23657 -0.236793
-0.75914 -0.27642 -0.120797
-0.914677 -0.285383 -0.285588
-0.92259 -0.336999 -0.14295
-0.75736 -0.142362 -0.142518
-0.74912 -0.158938 -0.0105116
-0.95099 -0.169889 -0.170027
-0.969129 -0.190612 -0.00337801
-0.75914 -0.27642 -0.120797
-0.74362 -0.311389 -0.00574822
-0.92259 -0.336999 -0.14295
-0.923614 -0.382608 -4.03399e-05
-0.47121 -0.235635 -0.235912
-0.550519 -0.211155 -0.211432
-0.645001 -0.320049 -0.320325
-0.708615 -0.279072 -0.279348
-0.414164 -0.299433 -0.117476
-0.507681 -0.257761 -0.10594
-0.591117 -0.431458 -0.165992
-0.676958 -0.355607 -0.144678
-0.550519 -0.211155 -0.211432
-0.629192 -0.184233 -0.184456
-0.708615 -0.279072 -0.279348
-0.770167 -0.23657 -0.236793
-0.507681 -0.257761 -0.10594
-0.600255 -0.211994 -0.0915084
-0.676958 -0.355607 -0.144678
-0.75914 -0.27642 -0.120797
-0.645001 -0.320049 -0.320325
-0.708615 -0.279072 -0.279348
-0.824846 -0.3995 -0.399758
-0.871425 -0.342752 -0.343009
-0.591117 -0.431458 -0.165992
-0.676958 -0.355607 -0.144678
-0.773644 -0.563155 -0.202796
-0.851507 -0.45114 -0.174184
-0.708615 -0.279072 -0.279348
-0.770167 -0.23657 -0.236793
-0.871425 -0.342752 -0.343009
-0.914677 -0.285383 -0.285588
-0.676958 -0.355607 -0.144678
-0.75914 -0.27642 -0.120797
-0.851507 -0.45114 -0.174184
-0.92259 -0.336999 -0.14295
-0.414164 -0.299433 -0.117476
-0.507681 -0.257761 -0.10594
-0.591117 -0.431458 -0.165992
-0.676958 -0.355607 -0.144678
-0.353355 -0.353417 -5.36572e-05
-0.461777 -0.297695 -0.0017617
-0.528626 -0.528688 -0.0101556
-0.639159 -0.423289 -0.0099878
-0.507681 -0.257761 -0.10594
-0.600255 -0.211994 -0.0915084
-0.676958 -0.355607 -0.144678
-0.75914 -0.27642 -0.120797
-0.461777 -0.297695 -0.0017617
-0.568793 -0.235633 -4.68126e-05
-0.639159 -0.423289 -0.0099878
-0.74362 -0.311389 -0.00574822
-0.591117 -0.431458 -0.165992
-0.676958 -0.355607 -0.144678
-0.773644 -0.563155 -0.202796
-0.851507 -0.45114 -0.174184
-0.528626 -0.528688 -0.0101556
-0.639159 -0.423289 -0.0099878
-0.706886 -0.706953 -4.69625e-05
-0.821364 -0.547881 -0.00292293
-0.676958 -0.355607 -0.144678
-0.75914 -0.27642 -0.120797
-0.851507 -0.45114 -0.174184
-0.92259 -0.336999 -0.14295
-0.639159 -0.423289 -0.0099878
-0.74362 -0.311389 -0.00574822
-0.821364 -0.547881 -0.00292293
-0.923614 -0.382608 -4.03399e-05
-0.353378 2.58637e-05 -0.353829
-0.4618 -0.00168218 -0.298107
-0.414192 -0.117315 -0.299815
-0.507709 -0.105779 -0.258142
-0.173979 -0.0144679 -0.17434
-0.35354 -0.0141401 -0.152595
-0.294255 -0.154842 -0.15508
-0.43185 -0.134109 -0.134347
-0.4618 -0.00168218 -0.298107
-0.568826 2.17656e-05 -0.235907
-0.507709 -0.105779 -0.258142
-0.600283 -0.0913744 -0.212258
-0.35354 -0.0141401 -0.152595
-0.536647 -0.00242068 -0.115985
-0.43185 -0.134109 -0.134347
-0.570168 -0.105874 -0.10603
-0.414192 -0.117315 -0.299815
-0.507709 -0.105779 -0.258142
-0.47121 -0.235635 -0.235912
-0.550519 -0.211155 -0.211432
-0.294255 -0.154842 -0.15508
-0.43185 -0.134109 -0.134347
-0.414164 -0.299433 -0.117476
-0.507681 -0.257761 -0.10594
-0.507709 -0.105779 -0.258142
-0.600283 -0.0913744 -0.212258
-0.550519 -0.211155 -0.211432
-0.629192 -0.184233 -0.184456
-0.43185 -0.134109 -0.134347
-0.570168 -0.105874 -0.10603
-0.507681 -0.257761 -0.10594
-0.600255 -0.211994 -0.0915084
-0.173979 -0.0144679 -0.17434
-0.35354 -0.0141401 -0.152595
-0.294255 -0.154842 -0.15508
-0.43185 -0.134109 -0.134347
0.000119517 3.95107e-05 -8.51721e-05
-0.243676 -0.012588 -0.0127127
-0.174014 -0.174094 -0.0145851
-0.353575 -0.152349 -0.0142573
-0.35354 -0.0141401 -0.152595
-0.536647 -0.00242068 -0.115985
-0.43185 -0.134109 -0.134347
-0.570168 -0.105874 -0.10603
-0.243676 -0.012588 -0.0127127
-0.499757 2.6264e-05 -5.59932e-05
-0.353575 -0.152349 -0.0142573
-0.536638 -0.115825 -0.00249917
-0.294255 -0.154842 -0.15508
-0.43185 -0.134109 -0.134347
-0.414164 -0.299433 -0.117476
-0.507681 -0.257761 -0.10594
-0.174014 -0.174094 -0.0145851
-0.353575 -0.152349 -0.0142573
-0.353355 -0.353417 -5.36572e-05
-0.461777 -0.297695 -0.0017617
-0.43185 -0.134109 -0.134347
-0.570168 -0.105874 -0.10603
-0.507681 -0.257761 -0.10594
-0.600255 -0.211994 -0.0915084
-0.353575 -0.152349 -0.0142573
-0.536638 -0.115825 -0.00249917
-0.461777 -0.297695 -0.0017617
-0.568793 -0.235633 -4.68126e-05
0.35342 -1.07579e-05 0.35381
0.41105 0.11765 0.285575
0.537285 -0.0281886 0.537675
0.596629 0.137248 0.402613
0.45986 -0.00426189 0.291345
0.503448 0.102388 0.243277
0.641521 -0.0301267 0.418048
0.678125 0.118468 0.329429
0.41105 0.11765 0.285575
0.471247 0.23565 0.23589
0.596629 0.137248 0.402613
0.66089 0.312213 0.312425
0.503448 0.102388 0.243277
0.548421 0.208426 0.208664
0.678125 0.118468 0.329429
0.717456 0.269659 0.269882
0.537285 -0.0281886 0.537675
0.596629 0.137248 0.402613
0.706987 -7.06582e-06 0.707354
0.757684 0.193311 0.519937
0.641521 -0.0301267 0.418048
0.678125 0.118468 0.329429
0.807751 -0.0161545 0.544741
0.831462 0.161694 0.421985
0.596629 0.137248 0.402613
0.66089 0.312213 0.312425
0.757684 0.193311 0.519937
0.816365 0.408197 0.408367
0.678125 0.118468 0.329429
0.717456 0.269659 0.269882
0.831462 0.161694 0.421985
0.859774 0.346686 0.346874
0.45986 -0.00426189 0.291345
0.503448 0.102388 0.243277
0.641521 -0.0301267 0.418048
0.678125 0.118468 0.329429
0.568863 -1.05854e-05 0.235889
0.598325 0.0930846 0.20606
0.753734 -0.0138281 0.304371
0.766454 0.108329 0.259042
0.503448 0.102388 0.243277
0.548421 0.208426 0.208664
0.678125 0.118468 0.329429
0.717456 0.269659 0.269882
0.598325 0.0930846 0.20606
0.628374 0.185113 0.185299
0.766454 0.108329 0.259042
0.780686 0.229491 0.229676
0.641521 -0.0301267 0.418048
0.678125 0.118468 0.329429
0.807751 -0.0161545 0.544741
0.831462 0.161694 0.421985
0.753734 -0.0138281 0.304371
0.766454 0.108329 0.259042
0.923707 -9.07618e-06 0.382848
0.917351 0.143661 0.322932
0.678125 0.118468 0.329429
0.717456 0.269659 0.269882
0.831462 0.161694 0.421985
0.859774 0.346686 0.346874
0.766454 0.108329 0.259042
0.780686 0.229491 0.229676
0.917351 0.143661 0.322932
0.913777 0.286891 0.287051
0.471247 0.23565 0.23589
0.411011 0.285228 0.117775
0.66089 0.312213 0.312425
0.596592 0.402284 0.13736
0.548421 0.208426 0.208664
0.50341 0.242931 0.102511
0.717456 0.269659 0.269882
0.678088 0.329094 0.118585
0.411011 0.285228 0.117775
0.353382 0.353432 2.70571e-05
0.596592 0.402284 0.13736
0.537247 0.537297 -0.0281508
0.50341 0.242931 0.102511
[...]
POINT_DATA 8192
SCALARS M_0 double 1
LOOKUP_TABLE default
0.998124 1.00087 0.99623 1.00094 0.999963 1.00178 1.00001 1.00218 1.00087 1.00204 1.00094 1.00542 1.00178 1.00305 1.00218 1.00424 0.99623 1.00094 0.995498 1.00076 1.00001 1.00218 1.00001 1.00249 1.00094 1.00542 1.00076 1.00663 1.00218 1.00424 1.00249 1.00359 0.999963 1.00178 1.00001 1.00218 1.00223 1.00277 1.00403 1.00399 1.00178 1.00305 1.00218 1.00424 1.00277 1.0044 1.00399 1.00679 1.00001 1.00218 1.00001 1.00249 1.00403 1.00399 1.002 1.00273 1.00218 1.00424 1.00249 1.00359 1.00399 1.00679 1.00273 1.00986 1.00204 1.00246 1.00542 1.00438 1.00305 1.00333 1.00424 1.00582 1.00246 1.00237 1.00438 1.00794 1.00333 1.00267 1.00582 1.00558 1.00542 1.00438 1.00663 1.00606 1.00424 1.00582 1.00359 1.00557 1.00438 1.00794 1.00606 1.01178 1.00582 1.00558 1.00557 1.01519 1.00305 1.00333 1.00424 1.00582 1.0044 1.00544 1.00679 1.00552 1.00333 1.00267 1.00582 1.00558 1.00544 1.00634 1.00552 1.00439 1.00424 1.00582 1.00359 1.00557 1.00679 1.00552 1.00986 1.01027 1.00582 1.00558 1.00557 1.01519 1.00552 1.00439 1.01027 1.00878 1.00223 1.00277 1.00403 1.00399 1.00171 1.00319 1.00529 1.00614 1.00277 1.0044 1.00399 1.00679 1.00319 1.00544 1.00614 1.00552 1.00403 1.00399 1.002 1.00273 1.00529 1.00614 1.00743 1.00918 1.00399 1.00679 1.00273 1.00986 1.00614 1.00552 1.00918 1.01027 1.00171 1.00319 1.00529 1.00614 1.00463 1.00243 1.00639 1.00477 1.00319 1.00544 1.00614 1.00552 1.00243 1.00634 1.00477 1.00439 1.00529 1.00614 1.00743 1.00918 1.00639 1.00477 1.01285 1.0068 1.00614 1.00552 1.00918 1.01027 1.00477 1.00439 1.0068 1.00878 0.998124 1.00087 0.999963 1.00178 0.999278 1.00082 1.00089 1.00177 1.00087 1.00204 1.00178 1.00305 1.00082 1.00246 1.00177 1.00333 0.999963 1.00178 1.00223 1.00277 1.00089 1.00177 1.00171 1.00319 1.00178 1.00305 1.00277 1.0044 1.00177 1.00333 1.00319 1.00544 0.999278 1.00082 1.00089 1.00177 0.999555 1.00032 1.00079 1.00128 1.00082 1.00246 1.00177 1.00333 1.00032 1.00237 1.00128 1.00267 1.00089 1.00177 1.00171 1.00319 1.00079 1.00128 1.00463 1.00243 1.00177 1.00333 1.00319 1.00544 1.00128 1.00267 1.00243 1.00634 0.997812 1.0002 0.997282 1.00048 1.00046 1.00225 1.00099 1.00241 1.0002 1.00235 1.00048 1.00432 1.00225 1.00376 1.00241 1.00639 0.997282 1.00048 0.994118 1.00107 1.00099 1.00241 1.00086 1.00225 1.00048 1.00432 1.00107 1.00697 1.00241 1.00639 1.00225 1.0061 1.00046 1.00225 1.00099 1.00241 1.00133 1.00388 1.00375 1.0056 1.00225 1.00376 1.00241 1.00639 1.00388 1.00294 1.0056 1.00512 1.00099 1.00241 1.00086 1.00225 1.00375 1.0056 1.00934 1.00893 1.00241 1.00639 1.00225 1.0061 1.0056 1.00512 1.00893 1.00879 1.00235 1.00247 1.00432 1.00762 1.00376 1.0045 1.00639 1.00661 1.00247 1.00306 1.00762 1.00874 1.0045 1.00318 1.00661 1.00634 1.00432 1.00762 1.00697 1.00911 1.00639 1.00661 1.0061 1.01268 1.00762 1.00874 1.00911 1.01017 1.00661 1.00634 1.01268 1.00756 1.00376 1.0045 1.00639 1.00661 1.00294 1.00538 1.00512 1.00593 1.0045 1.00318 1.00661 1.00634 1.00538 1.00593 1.00593 1.00868 1.00639 1.00661 1.0061 1.01268 1.00512 1.00593 1.00879 1.00867 1.00661 1.00634 1.01268 1.00756 1.00593 1.00868 1.00867 1.00585 1.00133 1.00388 1.00375 1.0056 1.00243 1.00506 1.00527 1.00802 1.00388 1.00294 1.0056 1.00512 1.00506 1.00538 1.00802 1.00593 1.00375 1.0056 1.00934 1.00893 1.00527 1.00802 1.01009 1.00739 1.0056 1.00512 1.00893 1.00879 1.00802 1.00593 1.00739 1.00867 1.00243 1.00506 1.00527 1.00802 1.00392 1.00406 1.00525 1.00532 1.00506 1.00538 1.00802 1.00593 1.00406 1.00593 1.00532 1.00868 1.00527 1.00802 1.01009 1.00739 1.00525 1.00532 1.01524 1.01155 1.00802 1.00593 1.00739 1.00867 1.00532 1.00868 1.01155 1.00585 0.997812 1.0002 1.00046 1.00225 0.999384 1.0009 1.00084 1.00257 1.0002 1.00235 1.00225 1.00376 1.0009 1.00247 1.00257 1.0045 1.00046 1.00225 1.00133 1.00388 1.00084 1.00257 1.00243 1.00506 1.00225 1.00376 1.00388 1.00294 1.00257 1.0045 1.00506 1.00538 0.999384 1.0009 1.00084 1.00257 0.999555 1.00169 1.00101 1.00139 1.0009 1.00247 1.00257 1.0045 1.00169 1.00306 1.00139 1.00318 1.00084 1.00257 1.00243 1.00506 1.00101 1.00139 1.00392 1.00406 1.00257 1.0045 1.00506 1.00538 1.00139 1.00318 1.00406 1.00593 0.993476 0.993208 0.982671 0.989105 0.99421 0.991693 0.990956 0.984266 0.993208 0.992741 0.989105 0.989124 0.991693 0.990956 0.984266 0.988318 0.982671 0.989105 0.98362 0.969237 0.990956 0.984266 0.979315 0.983577 0.989105 0.989124 0.969237 0.986026 0.984266 0.988318 0.983577 0.97695 0.99421 0.991693 0.990956 0.984266 0.990268 0.990738 0.986645 0.987817 0.991693 0.990956 0.984266 0.988318 0.990738 0.993501 0.987817 0.993015 0.990956 0.984266 0.979315 0.983577 0.986645 0.987817 0.97877 0.985004 0.984266 0.988318 0.983577 0.97695 0.987817 0.993015 0.985004 0.978576 0.992741 0.995963 0.989124 0.994073 0.990956 0.996718 0.988318 0.98875 0.995963 0.998788 0.994073 0.997353 0.996718 0.995708 0.98875 0.993317 0.989124 0.994073 0.986026 0.9907 0.988318 0.98875 0.97695 0.990113 0.994073 0.997353 0.9907 0.993407 0.98875 0.993317 0.990113 0.993031 0.990956 0.996718 0.988318 0.98875 0.993501 0.99434 0.993015 0.986898 0.996718 0.995708 0.98875 0.993317 0.99434 0.995419 0.986898 0.993295 0.988318 0.98875 0.97695 0.990113 0.993015 0.986898 0.978576 0.984771 0.98875 0.993317 0.990113 0.993031 0.986898 0.993295 0.984771 0.989497 0.990268 0.990738 0.986645 0.987817 0.995647 0.993451 0.993517 0.994021 0.990738 0.993501 0.987817 0.993015 0.993451 0.99434 0.994021 0.986898 0.986645 0.987817 0.97877 0.985004 0.993517 0.994021 0.987734 0.988785 0.987817 0.993015 0.985004 0.978576 0.994021 0.986898 0.988785 0.984771 0.995647 0.993451 0.993517 0.994021 0.998459 0.997459 0.996454 0.995587 0.993451 0.99434 0.994021 0.986898 0.997459 0.995419 0.995587 0.993295 0.993517 0.994021 0.987734 0.988785 0.996454 0.995587 0.994837 0.992255 0.994021 0.986898 0.988785 0.984771 0.995587 0.993295 0.992255 0.989497 0.993476 0.993208 0.99421 0.991693 0.997573 0.996508 0.996611 0.994995 0.993208 0.992741 0.991693 0.990956 0.996508 0.995963 0.994995 0.996718 0.99421 0.991693 0.990268 0.990738 0.996611 0.994995 0.995647 0.993451 0.991693 0.990956 0.990738 0.993501 0.994995 0.996718 0.993451 0.99434 0.997573 0.996508 0.996611 0.994995 0.999555 0.998332 0.998768 0.998239 0.996508 0.995963 0.994995 0.996718 0.998332 0.998788 0.998239 0.995708 0.996611 0.994995 0.995647 0.993451 0.998768 0.998239 0.998459 0.997459 0.994995 0.996718 0.993451 0.99434 0.998239 0.995708 0.997459 0.995419 0.993086 0.99367 0.987971 0.985406 0.990201 0.991742 0.990407 0.988808 0.99367 0.995781 0.985406 0.990441 0.991742 0.990183 0.988808 0.993425 0.987971 0.985406 0.973437 0.985429 0.990407 0.988808 0.98092 0.977878 0.985406 0.990441 0.985429 0.984879 0.988808 0.993425 0.977878 0.986274 0.990201 0.991742 0.990407 0.988808 0.993861 0.990807 0.989168 0.987612 0.991742 0.990183 0.988808 0.993425 0.990807 0.98836 0.987612 0.984496 0.990407 0.988808 0.98092 0.977878 0.989168 0.987612 0.977991 0.983107 0.988808 0.993425 0.977878 0.986274 0.987612 0.984496 0.983107 0.98446 0.995781 0.995767 0.990441 0.990776 0.990183 0.995059 0.993425 0.990476 0.995767 0.998226 0.990776 0.996426 0.995059 0.996158 0.990476 0.993425 0.990441 0.990776 0.984879 0.988304 0.993425 0.990476 0.986274 0.986071 0.990776 0.996426 0.988304 0.99614 0.990476 0.993425 0.986071 0.990367 0.990183 0.995059 0.993425 0.990476 0.98836 0.995774 0.984496 0.988138 0.995059 0.996158 0.990476 0.993425 0.995774 0.995594 0.988138 0.992077 0.993425 0.990476 0.986274 0.986071 0.984496 0.988138 0.98446 0.991058 0.990476 0.993425 0.986071 0.990367 0.988138 0.992077 0.991058 0.993095 0.993861 0.990807 0.989168 0.987612 0.996693 0.993261 0.990217 0.991531 0.990807 0.98836 0.987612 0.984496 0.993261 0.995774 0.991531 0.988138 0.989168 0.987612 0.977991 0.983107 0.990217 0.991531 0.986685 0.982629 0.987612 0.984496 0.983107 0.98446 0.991531 0.988138 0.982629 0.991058 0.996693 0.993261 0.990217 0.991531 0.997622 0.996945 0.995694 0.992881 0.993261 0.995774 0.991531 0.988138 0.996945 0.995594 0.992881 0.992077 0.990217 0.991531 0.986685 0.982629 0.995694 0.992881 0.994706 0.992515 0.991531 0.988138 0.982629 0.991058 0.992881 0.992077 0.992515 0.993095 0.993086 0.99367 0.990201 0.991742 0.997827 0.997965 0.996018 0.994439 0.99367 0.995781 0.991742 0.990183 0.997965 0.995767 0.994439 0.995059 0.990201 0.991742 0.993861 0.990807 0.996018 0.994439 0.996693 0.993261 0.991742 0.990183 0.990807 0.98836 0.994439 0.995059 0.993261 0.995774 0.997827 0.997965 0.996018 0.994439 0.999555 0.998745 0.99884 0.997398 0.997965 0.995767 0.994439 0.995059 0.998745 0.998226 0.997398 0.996158 0.996018 0.994439 0.996693 0.993261 0.99884 0.997398 0.997622 0.996945 0.994439 0.995059 0.993261 0.995774 0.997398 0.996158 0.996945 0.995594 0.99805 1.00024 0.996303 1.00075 1.00061 1.00107 1.00112 1.0028 1.00024 1.00267 1.00075 1.00466 1.00107 1.00359 1.0028 1.00436 0.996303 1.00075 0.997133 1.00047 1.00112 1.0028 1.00079 1.0029 1.00075 1.00466 1.00047 1.00642 1.0028 1.00436 1.0029 1.00907 1.00061 1.00107 1.00112 1.0028 1.00246 1.00335 1.00459 1.00428 1.00107 1.00359 1.0028 1.00436 1.00335 1.00591 1.00428 1.00773 1.00112 1.0028 1.00079 1.0029 1.00459 1.00428 1.00492 1.00694 1.0028 1.00436 1.0029 1.00907 1.00428 1.00773 1.00694 1.00738 1.00267 1.0031 1.00466 1.00542 1.00359 1.00447 1.00436 1.00534 1.0031 1.00347 1.00542 1.00814 1.00447 1.00464 1.00534 1.00574 1.00466 1.00542 1.00642 1.00903 1.00436 1.00534 1.00907 1.0144 1.00542 1.00814 1.00903 1.01237 1.00534 1.00574 1.0144 1.01551 1.00359 1.00447 1.00436 1.00534 1.00591 1.00645 1.00773 1.00712 1.00447 1.00464 1.00534 1.00574 1.00645 1.00779 1.00712 1.00785 1.00436 1.00534 1.00907 1.0144 1.00773 1.00712 1.00738 1.01227 1.00534 1.00574 1.0144 1.01551 1.00712 1.00785 1.01227 1.00606 1.00246 1.00335 1.00459 1.00428 1.00189 1.005 1.00687 1.00398 1.00335 1.00591 1.00428 1.00773 1.005 1.00645 1.00398 1.00712 1.00459 1.00428 1.00492 1.00694 1.00687 1.00398 1.00807 1.00912 1.00428 1.00773 1.00694 1.00738 1.00398 1.00712 1.00912 1.01227 1.00189 1.005 1.00687 1.00398 1.00381 1.00241 1.0083 1.00753 1.005 1.00645 1.00398 1.00712 1.00241 1.00779 1.00753 1.00785 1.00687 1.00398 1.00807 1.00912 1.0083 1.00753 1.01164 1.01032 1.00398 1.00712 1.00912 1.01227 1.00753 1.00785 1.01032 1.00606 0.99805 1.00024 1.00061 1.00107 0.99906 1.00085 1.00055 1.00167 1.00024 1.00267 1.00107 1.00359 1.00085 1.0031 1.00167 1.00447 1.00061 1.00107 1.00246 1.00335 1.00055 1.00167 1.00189 1.005 1.00107 1.00359 1.00335 1.00591 1.00167 1.00447 1.005 1.00645 0.99906 1.00085 1.00055 1.00167 0.999555 1.00123 1.00069 1.00122 1.00085 1.0031 1.00167 1.00447 1.00123 1.00347 1.00122 1.00464 1.00055 1.00167 1.00189 1.005 1.00069 1.00122 1.00381 1.00241 1.00167 1.00447 1.005 1.00645 1.00122 1.00464 1.00241 1.00779 1.00256 1.0026 1.00677 1.00716 1.00319 1.00457 1.00647 1.00535 1.0026 1.00216 1.00716 1.00365 1.00457 1.00452 1.00535 1.00529 1.00677 1.00716 1.00779 1.01073 1.00647 1.00535 1.01116 1.00912 1.00716 1.00365 1.01073 1.00459 1.00535 1.00529 1.00912 1.0058 1.00319 1.00457 1.00647 1.00535 1.00605 1.00648 1.00816 1.00813 1.00457 1.00452 1.00535 1.00529 1.00648 1.00559 1.00813 1.00648 1.00647 1.00535 1.01116 1.00912 1.00816 1.00813 1.01154 1.01041 1.00535 1.00529 1.00912 1.0058 1.00813 1.00648 1.01041 1.00682 1.00216 0.999809 1.00365 0.999764 1.00452 1.00212 1.00529 1.0033 0.999809 0.99811 0.999764 0.998127 1.00212 1.0005 1.0033 1.00098 1.00365 0.999764 1.00459 0.999737 1.00529 1.0033 1.0058 1.00435 0.999764 0.998127 0.999737 0.99362 1.0033 1.00098 1.00435 1.00114 1.00452 1.00212 1.00529 1.0033 1.00559 1.00255 1.00648 1.00611 1.00212 1.0005 1.0033 1.00098 1.00255 1.00283 1.00611 1.00447 1.00529 1.0033 1.0058 1.00435 1.00648 1.00611 1.00682 1.00514 1.0033 1.00098 1.00435 1.00114 1.00611 1.00447 1.00514 1.00635 1.00605 1.00648 1.00816 1.00813 1.00502 1.00468 1.00834 1.00563 1.00648 1.00559 1.00813 1.00648 1.00468 1.00255 1.00563 1.00611 1.00816 1.00813 1.01154 1.01041 1.00834 1.00563 1.01276 1.00628 1.00813 1.00648 1.01041 1.00682 1.00563 1.00611 1.00628 1.00514 1.00502 1.00468 1.00834 1.00563 1.00225 1.003 1.00525 1.00581 1.00468 1.00255 1.00563 1.00611 1.003 1.00283 1.00581 1.00447 1.00834 1.00563 1.01276 1.00628 1.00525 1.00581 1.01363 1.00786 1.00563 1.00611 1.00628 1.00514 1.00581 1.00447 1.00786 1.00635 1.00256 1.0026 1.00319 1.00457 1.00108 1.00074 1.00286 1.00278 1.0026 1.00216 1.00457 1.00452 1.00074 0.999809 1.00278 1.00212 1.00319 1.00457 1.00605 1.00648 1.00286 1.00278 1.00502 1.00468 1.00457 1.00452 1.00648 1.00559 1.00278 1.00212 1.00468 1.00255 1.00108 1.00074 1.00286 1.00278 0.999555 0.999583 1.00186 1.001 1.00074 0.999809 1.00278 1.00212 0.999583 0.99811 1.001 1.0005 1.00286 1.00278 1.00502 1.00468 1.00186 1.001 1.00225 1.003 1.00278 1.00212 1.00468 1.00255 1.001 1.0005 1.003 1.00283 1.00256 1.00319 1.00677 1.00647 1.00228 1.00134 1.00727 1.00511 1.00319 1.00605 1.00647 1.00816 1.00134 1.00613 1.00511 1.00817 1.00677 1.00647 1.00779 1.01116 1.00727 1.00511 1.00633 1.00509 1.00647 1.00816 1.01116 1.01154 1.00511 1.00817 1.00509 1.0031 1.00228 1.00134 1.00727 1.00511 1.00167 1.00253 1.00388 1.0062 1.00134 1.00613 1.00511 1.00817 1.00253 1.0048 1.0062 1.0081 1.00727 1.00511 1.00633 1.00509 1.00388 1.0062 1.00485 1.00732 1.00511 1.00817 1.00509 1.0031 1.0062 1.0081 1.00732 1.00789 1.00605 1.00502 1.00816 1.00834 1.00613 1.00298 1.00817 1.00524 1.00502 1.00225 1.00834 1.00525 1.00298 1.00354 1.00524 1.00764 1.00816 1.00834 1.01154 1.01276 1.00817 1.00524 1.0031 1.01044 1.00834 1.00525 1.01276 1.01363 1.00524 1.00764 1.01044 1.01147 1.00613 1.00298 1.00817 1.00524 1.0048 1.0032 1.0081 1.00623 1.00298 1.00354 1.00524 1.00764 1.0032 1.00156 1.00623 1.00367 1.00817 1.00524 1.0031 1.01044 1.0081 1.00623 1.00789 1.01178 1.00524 1.00764 1.01044 1.01147 1.00623 1.00367 1.01178 1.00416 1.00167 1.00253 1.00388 1.0062 0.999701 1.00186 0.999672 1.0028 1.00253 1.0048 1.0062 1.0081 1.00186 1.0032 1.0028 1.00623 1.00388 1.0062 1.00485 1.00732 0.999672 1.0028 0.999731 1.00409 1.0062 1.0081 1.00732 1.00789 1.0028 1.00623 1.00409 1.01178 0.999701 1.00186 0.999672 1.0028 0.998459 1.00004 0.996454 1.00031 1.00186 1.0032 1.0028 1.00623 1.00004 1.00156 1.00031 1.00367 0.999672 1.0028 0.999731 1.00409 0.996454 1.00031 0.994837 1.00028 1.0028 1.00623 1.00409 1.01178 1.00031 1.00367 1.00028 1.00416 1.00256 1.00319 1.00228 1.00134 1.00108 1.00286 1.00057 1.00285 1.00319 1.00605 1.00134 1.00613 1.00286 1.00502 1.00285 1.00298 1.00228 1.00134 1.00167 1.00253 1.00057 1.00285 0.999701 1.00186 1.00134 1.00613 1.00253 1.0048 1.00285 1.00298 1.00186 1.0032 1.00108 1.00286 1.00057 1.00285 0.999555 1.00186 0.998768 1.00048 1.00286 1.00502 1.00285 1.00298 1.00186 1.00225 1.00048 1.00354 1.00057 1.00285 0.999701 1.00186 0.998768 1.00048 0.998459 1.00004 1.00285 1.00298 1.00186 1.0032 1.00048 1.00354 1.00004 1.00156 0.997812 1.00046 0.997282 1.00099 1.00033 1.00166 1.00031 1.00298 1.00046 1.00133 1.00099 1.00375 1.00166 1.00461 1.00298 1.00571 0.997282 1.00099 0.994118 1.00086 1.00031 1.00298 0.999623 1.00297 1.00099 1.00375 1.00086 1.00934 1.00298 1.00571 1.00297 1.00453 1.00033 1.00166 1.00031 1.00298 1.00257 1.00224 1.00408 1.00535 1.00166 1.00461 1.00298 1.00571 1.00224 1.00498 1.00535 1.00699 1.00031 1.00298 0.999623 1.00297 1.00408 1.00535 1.00281 1.00732 1.00298 1.00571 1.00297 1.00453 1.00535 1.00699 1.00732 1.01329 1.00133 1.00243 1.00375 1.00527 1.00461 1.00241 1.00571 1.00832 1.00243 1.00392 1.00527 1.00525 1.00241 1.00412 1.00832 1.00544 1.00375 1.00527 1.00934 1.01009 1.00571 1.00832 1.00453 1.01399 1.00527 1.00525 1.01009 1.01524 1.00832 1.00544 1.01399 1.00816 1.00461 1.00241 1.00571 1.00832 1.00498 1.00365 1.00699 1.00444 1.00241 1.00412 1.00832 1.00544 1.00365 1.0043 1.00444 1.00708 1.00571 1.00832 1.00453 1.01399 1.00699 1.00444 1.01329 1.01096 1.00832 1.00544 1.01399 1.00816 1.00444 1.00708 1.01096 1.0073 1.00257 1.00224 1.00408 1.00535 1.0032 1.00476 1.00444 1.00553 1.00224 1.00498 1.00535 1.00699 1.00476 1.00365 1.00553 1.00444 1.00408 1.00535 1.00281 1.00732 1.00444 1.00553 1.01138 1.00769 1.00535 1.00699 1.00732 1.01329 1.00553 1.00444 1.00769 1.01096 1.0032 1.00476 1.00444 1.00553 1.00347 1.00464 1.00814 1.00779 1.00476 1.00365 1.00553 1.00444 1.00464 1.0043 1.00779 1.00708 1.00444 1.00553 1.01138 1.00769 1.00814 1.00779 1.01237 1.0123 1.00553 1.00444 1.00769 1.01096 1.00779 1.00708 1.0123 1.0073 0.997812 1.00046 1.00033 1.00166 0.999384 1.00084 1.00127 1.00249 1.00046 1.00133 1.00166 1.00461 1.00084 1.00243 1.00249 1.00241 1.00033 1.00166 1.00257 1.00224 1.00127 1.00249 1.0032 1.00476 1.00166 1.00461 1.00224 1.00498 1.00249 1.00241 1.00476 1.00365 0.999384 1.00084 1.00127 1.00249 0.999555 1.00101 1.00123 1.00221 1.00084 1.00243 1.00249 1.00241 1.00101 1.00392 1.00221 1.00412 1.00127 1.00249 1.0032 1.00476 1.00123 1.00221 1.00347 1.00464 1.00249 1.00241 1.00476 1.00365 1.00221 1.00412 1.00464 1.0043 0.99811 0.999986 0.998127 0.999746 1.0005 1.00164 1.00098 1.00274 0.999986 1.00247 0.999746 1.00325 1.00164 1.00196 1.00274 1.0045 0.998127 0.999746 0.99362 0.999717 1.00098 1.00274 1.00114 1.0018 0.999746 1.00325 0.999717 1.00124 1.00274 1.0045 1.0018 1.00144 1.0005 1.00164 1.00098 1.00274 1.00283 1.00213 1.00447 1.00315 1.00164 1.00196 1.00274 1.0045 1.00213 1.00157 1.00315 1.00555 1.00098 1.00274 1.00114 1.0018 1.00447 1.00315 1.00635 1.00635 1.00274 1.0045 1.0018 1.00144 1.00315 1.00555 1.00635 1.00939 1.00306 1.00553 1.00874 1.00727 1.00261 1.00346 1.00561 1.00835 1.00553 1.00667 1.00727 1.01024 1.00346 1.00556 1.00835 1.00733 1.00874 1.00727 1.01017 1.01042 1.00561 1.00835 1.00795 1.01238 1.00727 1.01024 1.01042 1.01158 1.00835 1.00733 1.01238 1.01009 1.00261 1.00346 1.00561 1.00835 1.00247 1.00196 1.00325 1.0045 1.00346 1.00556 1.00835 1.00733 1.00196 1.00157 1.0045 1.00555 1.00561 1.00835 1.00795 1.01238 1.00325 1.0045 1.00124 1.00144 1.00835 1.00733 1.01238 1.01009 1.0045 1.00555 1.00144 1.00939 1.00225 1.003 1.00525 1.00581 1.00409 1.00327 1.00659 1.00583 1.003 1.00283 1.00581 1.00447 1.00327 1.00213 1.00583 1.00315 1.00525 1.00581 1.01363 1.00786 1.00659 1.00583 1.0072 1.01037 1.00581 1.00447 1.00786 1.00635 1.00583 1.00315 1.01037 1.00635 1.00409 1.00327 1.00659 1.00583 1.00667 1.00556 1.01024 1.00733 1.00327 1.00213 1.00583 1.00315 1.00556 1.00157 1.00733 1.00555 1.00659 1.00583 1.0072 1.01037 1.01024 1.00733 1.01158 1.01009 1.00583 1.00315 1.01037 1.00635 1.00733 1.00555 1.01009 1.00939 0.999555 0.999583 1.00186 1.001 1.00169 1.00057 1.00332 1.00175 0.999583 0.99811 1.001 1.0005 1.00057 0.999986 1.00175 1.00164 1.00186 1.001 1.00225 1.003 1.00332 1.00175 1.00409 1.00327 1.001 1.0005 1.003 1.00283 1.00175 1.00164 1.00327 1.00213 1.00169 1.00057 1.00332 1.00175 1.00306 1.00261 1.00553 1.00346 1.00057 0.999986 1.00175 1.00164 1.00261 1.00247 1.00346 1.00196 1.00332 1.00175 1.00409 1.00327 1.00553 1.00346 1.00667 1.00556 1.00175 1.00164 1.00327 1.00213 1.00346 1.00196 1.00556 1.00157 1.00265 1.00246 1.00374 1.00576 1.00033 1.00235 1.0004 1.00398 1.00246 1.0048 1.00576 1.0072 1.00235 1.0041 1.00398 1.00506 1.00374 1.00576 1.00619 1.00813 1.0004 1.00398 1.00035 1.00434 1.00576 1.0072 1.00813 1.00467 1.00398 1.00506 1.00434 1.00797 1.00033 1.00235 1.0004 1.00398 0.998124 1.00087 0.99623 1.00094 1.00235 1.0041 1.00398 1.00506 1.00087 1.00204 1.00094 1.00542 1.0004 1.00398 1.00035 1.00434 0.99623 1.00094 0.995498 1.00076 1.00398 1.00506 1.00434 1.00797 1.00094 1.00542 1.00076 1.00663 1.00265 1.00365 1.00374 1.00455 1.00246 1.0042 1.00576 1.0069 1.00365 1.00256 1.00455 1.00677 1.0042 1.00217 1.0069 1.00688 1.00374 1.00455 1.00619 1.01518 1.00576 1.0069 1.00813 1.00502 1.00455 1.00677 1.01518 1.00779 1.0069 1.00688 1.00502 1.00667 1.00246 1.0042 1.00576 1.0069 1.0048 1.00459 1.0072 1.00671 1.0042 1.00217 1.0069 1.00688 1.00459 1.00587 1.00671 1.00631 1.00576 1.0069 1.00813 1.00502 1.0072 1.00671 1.00467 1.00986 1.0069 1.00688 1.00502 1.00667 1.00671 1.00631 1.00986 1.01197 1.0048 1.00459 1.0072 1.00671 1.0041 1.00397 1.00506 1.00769 1.00459 1.00587 1.00671 1.00631 1.00397 1.00353 1.00769 1.00606 1.0072 1.00671 1.00467 1.0098