# vtk DataFile Version 3.0
#This file was generated by the deal.II library on 2025/4/16 at 17:59:38
ASCII
DATASET UNSTRUCTURED_GRID

POINTS 8192 double
-0.351845 0.000304905 -0.35634
-0.460267 -0.00140314 -0.300618
-0.527116 -0.00979706 -0.531611
-0.637648 -0.00962924 -0.426212
-0.412659 -0.117036 -0.302325
-0.506176 -0.1055 -0.260653
-0.589612 -0.165551 -0.43435
-0.675452 -0.144237 -0.358499
-0.460267 -0.00140314 -0.300618
-0.56697 0.000264861 -0.237788
-0.637648 -0.00962924 -0.426212
-0.741797 -0.00543654 -0.313543
-0.506176 -0.1055 -0.260653
-0.598427 -0.0911313 -0.214139
-0.675452 -0.144237 -0.358499
-0.757311 -0.12042 -0.278565
-0.527116 -0.00979706 -0.531611
-0.637648 -0.00962924 -0.426212
-0.705477 0.000260041 -0.709793
-0.819955 -0.00261593 -0.550722
-0.589612 -0.165551 -0.43435
-0.675452 -0.144237 -0.358499
-0.772231 -0.202418 -0.565954
-0.850094 -0.173806 -0.45394
-0.637648 -0.00962924 -0.426212
-0.741797 -0.00543654 -0.313543
-0.819955 -0.00261593 -0.550722
-0.921792 0.000239418 -0.384583
-0.675452 -0.144237 -0.358499
-0.757311 -0.12042 -0.278565
-0.850094 -0.173806 -0.45394
-0.920753 -0.142613 -0.338961
-0.412659 -0.117036 -0.302325
-0.506176 -0.1055 -0.260653
-0.589612 -0.165551 -0.43435
-0.675452 -0.144237 -0.358499
-0.469494 -0.234999 -0.237825
-0.548804 -0.210519 -0.213345
-0.643285 -0.319412 -0.322239
-0.706899 -0.278435 -0.281262
-0.506176 -0.1055 -0.260653
-0.598427 -0.0911313 -0.214139
-0.675452 -0.144237 -0.358499
-0.757311 -0.12042 -0.278565
-0.548804 -0.210519 -0.213345
-0.627234 -0.183681 -0.18598
-0.706899 -0.278435 -0.281262
-0.768209 -0.236017 -0.238316
-0.589612 -0.165551 -0.43435
-0.675452 -0.144237 -0.358499
-0.772231 -0.202418 -0.565954
-0.850094 -0.173806 -0.45394
-0.643285 -0.319412 -0.322239
-0.706899 -0.278435 -0.281262
-0.823111 -0.398882 -0.401517
-0.86969 -0.342134 -0.344768
-0.675452 -0.144237 -0.358499
-0.757311 -0.12042 -0.278565
-0.850094 -0.173806 -0.45394
-0.920753 -0.142613 -0.338961
-0.706899 -0.278435 -0.281262
-0.768209 -0.236017 -0.238316
-0.86969 -0.342134 -0.344768
-0.912665 -0.284825 -0.286946
-0.56697 0.000264861 -0.237788
-0.534562 -0.00217417 -0.117225
-0.741797 -0.00543654 -0.313543
-0.747043 -0.0101866 -0.160338
-0.598427 -0.0911313 -0.214139
-0.568083 -0.105627 -0.10727
-0.757311 -0.12042 -0.278565
-0.755275 -0.142115 -0.143758
-0.534562 -0.00217417 -0.117225
-0.49759 0.000301802 -0.000587416
-0.747043 -0.0101866 -0.160338
-0.743275 -0.00963949 -0.0105287
-0.568083 -0.105627 -0.10727
-0.534471 -0.115549 -0.00303059
-0.755275 -0.142115 -0.143758
-0.746953 -0.158662 -0.011043
-0.741797 -0.00543654 -0.313543
-0.747043 -0.0101866 -0.160338
-0.921792 0.000239418 -0.384583
-0.966918 -0.00306411 -0.191833
-0.757311 -0.12042 -0.278565
-0.755275 -0.142115 -0.143758
-0.920753 -0.142613 -0.338961
-0.948757 -0.169646 -0.171104
-0.747043 -0.0101866 -0.160338
-0.743275 -0.00963949 -0.0105287
-0.966918 -0.00306411 -0.191833
-0.997284 0.000315613 -0.000509563
-0.755275 -0.142115 -0.143758
-0.746953 -0.158662 -0.011043
-0.948757 -0.169646 -0.171104
-0.966685 -0.190324 -0.00383935
-0.598427 -0.0911313 -0.214139
-0.568083 -0.105627 -0.10727
-0.757311 -0.12042 -0.278565
-0.755275 -0.142115 -0.143758
-0.627234 -0.183681 -0.18598
-0.598136 -0.211432 -0.0925475
-0.768209 -0.236017 -0.238316
-0.757021 -0.275858 -0.121836
-0.568083 -0.105627 -0.10727
-0.534471 -0.115549 -0.00303059
-0.755275 -0.142115 -0.143758
-0.746953 -0.158662 -0.011043
-0.598136 -0.211432 -0.0925475
-0.566629 -0.234986 -0.000488609
-0.757021 -0.275858 -0.121836
-0.741456 -0.310741 -0.00619001
-0.757311 -0.12042 -0.278565
-0.755275 -0.142115 -0.143758
-0.920753 -0.142613 -0.338961
-0.948757 -0.169646 -0.171104
-0.768209 -0.236017 -0.238316
-0.757021 -0.275858 -0.121836
-0.912665 -0.284825 -0.286946
-0.920339 -0.336404 -0.143853
-0.755275 -0.142115 -0.143758
-0.746953 -0.158662 -0.011043
-0.948757 -0.169646 -0.171104
-0.966685 -0.190324 -0.00383935
-0.757021 -0.275858 -0.121836
-0.741456 -0.310741 -0.00619001
-0.920339 -0.336404 -0.143853
-0.921226 -0.381901 -0.000422162
-0.469494 -0.234999 -0.237825
-0.548804 -0.210519 -0.213345
-0.643285 -0.319412 -0.322239
-0.706899 -0.278435 -0.281262
-0.412361 -0.298459 -0.118716
-0.505878 -0.256787 -0.107181
-0.589314 -0.430484 -0.167232
-0.675155 -0.354633 -0.145918
-0.548804 -0.210519 -0.213345
-0.627234 -0.183681 -0.18598
-0.706899 -0.278435 -0.281262
-0.768209 -0.236017 -0.238316
-0.505878 -0.256787 -0.107181
-0.598136 -0.211432 -0.0925475
-0.675155 -0.354633 -0.145918
-0.757021 -0.275858 -0.121836
-0.643285 -0.319412 -0.322239
-0.706899 -0.278435 -0.281262
-0.823111 -0.398882 -0.401517
-0.86969 -0.342134 -0.344768
-0.589314 -0.430484 -0.167232
-0.675155 -0.354633 -0.145918
-0.771714 -0.562121 -0.203878
-0.849577 -0.450107 -0.175266
-0.706899 -0.278435 -0.281262
-0.768209 -0.236017 -0.238316
-0.86969 -0.342134 -0.344768
-0.912665 -0.284825 -0.286946
-0.675155 -0.354633 -0.145918
-0.757021 -0.275858 -0.121836
-0.849577 -0.450107 -0.175266
-0.920339 -0.336404 -0.143853
-0.412361 -0.298459 -0.118716
-0.505878 -0.256787 -0.107181
-0.589314 -0.430484 -0.167232
-0.675155 -0.354633 -0.145918
-0.351598 -0.352178 -0.000545256
-0.46002 -0.296456 -0.0022533
-0.526869 -0.527449 -0.0106472
-0.637401 -0.42205 -0.0104794
-0.505878 -0.256787 -0.107181
-0.598136 -0.211432 -0.0925475
-0.675155 -0.354633 -0.145918
-0.757021 -0.275858 -0.121836
-0.46002 -0.296456 -0.0022533
-0.566629 -0.234986 -0.000488609
-0.637401 -0.42205 -0.0104794
-0.741456 -0.310741 -0.00619001
-0.589314 -0.430484 -0.167232
-0.675155 -0.354633 -0.145918
-0.771714 -0.562121 -0.203878
-0.849577 -0.450107 -0.175266
-0.526869 -0.527449 -0.0106472
-0.637401 -0.42205 -0.0104794
-0.704921 -0.705553 -0.000476872
-0.819399 -0.546481 -0.00335284
-0.675155 -0.354633 -0.145918
-0.757021 -0.275858 -0.121836
-0.849577 -0.450107 -0.175266
-0.920339 -0.336404 -0.143853
-0.637401 -0.42205 -0.0104794
-0.741456 -0.310741 -0.00619001
-0.819399 -0.546481 -0.00335284
-0.921226 -0.381901 -0.000422162
-0.351845 0.000304905 -0.35634
-0.460267 -0.00140314 -0.300618
-0.412659 -0.117036 -0.302325
-0.506176 -0.1055 -0.260653
-0.172632 -0.0141384 -0.176219
-0.352193 -0.0138106 -0.154475
-0.292908 -0.154512 -0.15696
-0.430503 -0.13378 -0.136227
-0.460267 -0.00140314 -0.300618
-0.56697 0.000264861 -0.237788
-0.506176 -0.1055 -0.260653
-0.598427 -0.0911313 -0.214139
-0.352193 -0.0138106 -0.154475
-0.534562 -0.00217417 -0.117225
-0.430503 -0.13378 -0.136227
-0.568083 -0.105627 -0.10727
-0.412659 -0.117036 -0.302325
-0.506176 -0.1055 -0.260653
-0.469494 -0.234999 -0.237825
-0.548804 -0.210519 -0.213345
-0.292908 -0.154512 -0.15696
-0.430503 -0.13378 -0.136227
-0.412361 -0.298459 -0.118716
-0.505878 -0.256787 -0.107181
-0.506176 -0.1055 -0.260653
-0.598427 -0.0911313 -0.214139
-0.548804 -0.210519 -0.213345
-0.627234 -0.183681 -0.18598
-0.430503 -0.13378 -0.136227
-0.568083 -0.105627 -0.10727
-0.505878 -0.256787 -0.107181
-0.598136 -0.211432 -0.0925475
-0.172632 -0.0141384 -0.176219
-0.352193 -0.0138106 -0.154475
-0.292908 -0.154512 -0.15696
-0.430503 -0.13378 -0.136227
0.00115611 0.000431439 -0.000864833
-0.24264 -0.0121961 -0.0134923
-0.172978 -0.173702 -0.0153648
-0.352538 -0.151957 -0.0150369
-0.352193 -0.0138106 -0.154475
-0.534562 -0.00217417 -0.117225
-0.430503 -0.13378 -0.136227
-0.568083 -0.105627 -0.10727
-0.24264 -0.0121961 -0.0134923
-0.49759 0.000301802 -0.000587416
-0.352538 -0.151957 -0.0150369
-0.534471 -0.115549 -0.00303059
-0.292908 -0.154512 -0.15696
-0.430503 -0.13378 -0.136227
-0.412361 -0.298459 -0.118716
-0.505878 -0.256787 -0.107181
-0.172978 -0.173702 -0.0153648
-0.352538 -0.151957 -0.0150369
-0.351598 -0.352178 -0.000545256
-0.46002 -0.296456 -0.0022533
-0.430503 -0.13378 -0.136227
-0.568083 -0.105627 -0.10727
-0.505878 -0.256787 -0.107181
-0.598136 -0.211432 -0.0925475
-0.352538 -0.151957 -0.0150369
-0.534471 -0.115549 -0.00303059
-0.46002 -0.296456 -0.0022533
-0.566629 -0.234986 -0.000488609
0.352182 -9.41853e-05 0.356166
0.409812 0.117567 0.287931
0.536048 -0.028272 0.540031
0.595392 0.137164 0.404969
0.458622 -0.00434532 0.293701
0.50221 0.102304 0.245633
0.640283 -0.0302101 0.420404
0.676888 0.118385 0.331785
0.409812 0.117567 0.287931
0.469783 0.235201 0.237623
0.595392 0.137164 0.404969
0.659426 0.311764 0.314158
0.50221 0.102304 0.245633
0.546957 0.207977 0.210398
0.676888 0.118385 0.331785
0.715992 0.26921 0.271615
0.536048 -0.028272 0.540031
0.595392 0.137164 0.404969
0.705865 -5.77982e-05 0.709624
0.756562 0.19326 0.522208
0.640283 -0.0302101 0.420404
0.676888 0.118385 0.331785
0.806629 -0.0162053 0.547012
0.83034 0.161643 0.424256
0.595392 0.137164 0.404969
0.659426 0.311764 0.314158
0.756562 0.19326 0.522208
0.814903 0.407769 0.409909
0.676888 0.118385 0.331785
0.715992 0.26921 0.271615
0.83034 0.161643 0.424256
0.858313 0.346258 0.348416
0.458622 -0.00434532 0.293701
0.50221 0.102304 0.245633
0.640283 -0.0302101 0.420404
0.676888 0.118385 0.331785
0.567258 -9.29828e-05 0.237617
0.59672 0.0930022 0.207789
0.752129 -0.0139105 0.306099
0.764849 0.108246 0.260771
0.50221 0.102304 0.245633
0.546957 0.207977 0.210398
0.676888 0.118385 0.331785
0.715992 0.26921 0.271615
0.59672 0.0930022 0.207789
0.626642 0.184718 0.186649
0.764849 0.108246 0.260771
0.778954 0.229097 0.231025
0.640283 -0.0302101 0.420404
0.676888 0.118385 0.331785
0.806629 -0.0162053 0.547012
0.83034 0.161643 0.424256
0.752129 -0.0139105 0.306099
0.764849 0.108246 0.260771
0.922105 -7.82275e-05 0.384385
0.915749 0.143592 0.324469
0.676888 0.118385 0.331785
0.715992 0.26921 0.271615
0.83034 0.161643 0.424256
0.858313 0.346258 0.348416
0.764849 0.108246 0.260771
0.778954 0.229097 0.231025
0.915749 0.143592 0.324469
0.912 0.286492 0.288181
0.469783 0.235201 0.237623
0.409416 0.284455 0.118835
0.659426 0.311764 0.314158
0.594997 0.401511 0.138419
0.546957 0.207977 0.210398
0.501814 0.242158 0.103571
0.715992 0.26921 0.271615
0.676493 0.32832 0.119644
0.409416 0.284455 0.118835
0.351781 0.352394 0.000291821
0.594997 0.401511 0.138419
[...]
POINT_DATA 8192
SCALARS M_0 double 1
LOOKUP_TABLE default
0.995768 1.00437 0.995583 1.00406 0.998734 1.00007 0.999565 1.00083 1.00437 1.00081 1.00406 1.00464 1.00007 0.997934 1.00083 1.00026 0.995583 1.00406 0.994529 1.00281 0.999565 1.00083 0.999488 1.00109 1.00406 1.00464 1.00281 1.00655 1.00083 1.00026 1.00109 1.00065 0.998734 1.00007 0.999565 1.00083 1.00432 1.00104 1.00597 1.00214 1.00007 0.997934 1.00083 1.00026 1.00104 1.00382 1.00214 1.00607 0.999565 1.00083 0.999488 1.00109 1.00597 1.00214 1.00422 1.00173 1.00083 1.00026 1.00109 1.00065 1.00214 1.00607 1.00173 1.0099 1.00081 1.00144 1.00464 1.00304 0.997934 0.999296 1.00026 1.00091 1.00144 1.00234 1.00304 1.00522 0.999296 0.999559 1.00091 0.999559 1.00464 1.00304 1.00655 1.00655 1.00026 1.00091 1.00065 1.00371 1.00304 1.00522 1.00655 1.01232 1.00091 0.999559 1.00371 1.01272 0.997934 0.999296 1.00026 1.00091 1.00382 1.00652 1.00607 1.00617 0.999296 0.999559 1.00091 0.999559 1.00652 1.00732 1.00617 1.00468 1.00026 1.00091 1.00065 1.00371 1.00607 1.00617 1.0099 1.01227 1.00091 0.999559 1.00371 1.01272 1.00617 1.00468 1.01227 1.01094 1.00432 1.00104 1.00597 1.00214 1.0014 1.00212 1.00317 1.00246 1.00104 1.00382 1.00214 1.00607 1.00212 1.00652 1.00246 1.00617 1.00597 1.00214 1.00422 1.00173 1.00317 1.00246 1.00719 1.00823 1.00214 1.00607 1.00173 1.0099 1.00246 1.00617 1.00823 1.01227 1.0014 1.00212 1.00317 1.00246 1.0047 1.00143 1.00427 1.00091 1.00212 1.00652 1.00246 1.00617 1.00143 1.00732 1.00091 1.00468 1.00317 1.00246 1.00719 1.00823 1.00427 1.00091 1.01351 1.00641 1.00246 1.00617 1.00823 1.01227 1.00091 1.00468 1.00641 1.01094 0.995768 1.00437 0.998734 1.00007 0.997064 0.999679 0.999306 0.997748 1.00437 1.00081 1.00007 0.997934 0.999679 1.00144 0.997748 0.999296 0.998734 1.00007 1.00432 1.00104 0.999306 0.997748 1.0014 1.00212 1.00007 0.997934 1.00104 1.00382 0.997748 0.999296 1.00212 1.00652 0.997064 0.999679 0.999306 0.997748 0.995403 0.996688 0.997428 0.996606 0.999679 1.00144 0.997748 0.999296 0.996688 1.00234 0.996606 0.999559 0.999306 0.997748 1.0014 1.00212 0.997428 0.996606 1.0047 1.00143 0.997748 0.999296 1.00212 1.00652 0.996606 0.999559 1.00143 1.00732 0.995872 0.999634 0.997429 1.0001 1.0011 1.00081 1.00199 1.00122 0.999634 1.00086 1.0001 1.00362 1.00081 1.00229 1.00122 1.00499 0.997429 1.0001 0.993058 1.0009 1.00199 1.00122 1.00138 1.00108 1.0001 1.00362 1.0009 1.00646 1.00122 1.00499 1.00108 1.00546 1.0011 1.00081 1.00199 1.00122 0.997719 0.998518 1.00179 1.00174 1.00081 1.00229 1.00122 1.00499 0.998518 1.00214 1.00174 1.00449 1.00199 1.00122 1.00138 1.00108 1.00179 1.00174 1.00791 1.00656 1.00122 1.00499 1.00108 1.00546 1.00174 1.00449 1.00656 1.00894 1.00086 1.00195 1.00362 1.00538 1.00229 1.00187 1.00499 1.00184 1.00195 1.00359 1.00538 1.00862 1.00187 0.999543 1.00184 0.999692 1.00362 1.00538 1.00646 1.0094 1.00499 1.00184 1.00546 1.01091 1.00538 1.00862 1.0094 1.01231 1.00184 0.999692 1.01091 1.00528 1.00229 1.00187 1.00499 1.00184 1.00214 1.00614 1.00449 1.00625 1.00187 0.999543 1.00184 0.999692 1.00614 1.00762 1.00625 1.00902 1.00499 1.00184 1.00546 1.01091 1.00449 1.00625 1.00894 1.01055 1.00184 0.999692 1.01091 1.00528 1.00625 1.00902 1.01055 1.00887 0.997719 0.998518 1.00179 1.00174 0.999126 1.00287 1.00199 1.00507 0.998518 1.00214 1.00174 1.00449 1.00287 1.00614 1.00507 1.00625 1.00179 1.00174 1.00791 1.00656 1.00199 1.00507 1.00909 1.00715 1.00174 1.00449 1.00656 1.00894 1.00507 1.00625 1.00715 1.01055 0.999126 1.00287 1.00199 1.00507 1.00014 1.00444 1.00201 1.00192 1.00287 1.00614 1.00507 1.00625 1.00444 1.00762 1.00192 1.00902 1.00199 1.00507 1.00909 1.00715 1.00201 1.00192 1.01436 1.01185 1.00507 1.00625 1.00715 1.01055 1.00192 1.00902 1.01185 1.00887 0.995872 0.999634 1.0011 1.00081 0.997545 0.998004 0.996565 1.00019 0.999634 1.00086 1.00081 1.00229 0.998004 1.00195 1.00019 1.00187 1.0011 1.00081 0.997719 0.998518 0.996565 1.00019 0.999126 1.00287 1.00081 1.00229 0.998518 1.00214 1.00019 1.00187 1.00287 1.00614 0.997545 0.998004 0.996565 1.00019 0.995403 1.00837 1.00183 0.994511 0.998004 1.00195 1.00019 1.00187 1.00837 1.00359 0.994511 0.999543 0.996565 1.00019 0.999126 1.00287 1.00183 0.994511 1.00014 1.00444 1.00019 1.00187 1.00287 1.00614 0.994511 0.999543 1.00444 1.00762 0.997496 0.992989 0.984485 0.99011 0.993869 0.990599 0.991521 0.984582 0.992989 0.996342 0.99011 0.991155 0.990599 0.993084 0.984582 0.988921 0.984485 0.99011 0.9821 0.968264 0.991521 0.984582 0.977395 0.980694 0.99011 0.991155 0.968264 0.984878 0.984582 0.988921 0.980694 0.97565 0.993869 0.990599 0.991521 0.984582 0.994024 0.993104 0.988602 0.988764 0.990599 0.993084 0.984582 0.988921 0.993104 0.996586 0.988764 0.994008 0.991521 0.984582 0.977395 0.980694 0.988602 0.988764 0.977587 0.982899 0.984582 0.988921 0.980694 0.97565 0.988764 0.994008 0.982899 0.97823 0.996342 0.997955 0.991155 0.994871 0.993084 0.996524 0.988921 0.987884 0.997955 0.999434 0.994871 0.995791 0.996524 0.992666 0.987884 0.990677 0.991155 0.994871 0.984878 0.99035 0.988921 0.987884 0.97565 0.988329 0.994871 0.995791 0.99035 0.992476 0.987884 0.990677 0.988329 0.990646 0.993084 0.996524 0.988921 0.987884 0.996586 0.998377 0.994008 0.989693 0.996524 0.992666 0.987884 0.990677 0.998377 0.997899 0.989693 0.994167 0.988921 0.987884 0.97565 0.988329 0.994008 0.989693 0.97823 0.984775 0.987884 0.990677 0.988329 0.990646 0.989693 0.994167 0.984775 0.989135 0.994024 0.993104 0.988602 0.988764 0.997277 0.994822 0.99382 0.993736 0.993104 0.996586 0.988764 0.994008 0.994822 0.998377 0.993736 0.989693 0.988602 0.988764 0.977587 0.982899 0.99382 0.993736 0.986593 0.987619 0.988764 0.994008 0.982899 0.97823 0.993736 0.989693 0.987619 0.984775 0.997277 0.994822 0.99382 0.993736 0.997837 0.995018 0.995176 0.993972 0.994822 0.998377 0.993736 0.989693 0.995018 0.997899 0.993972 0.994167 0.99382 0.993736 0.986593 0.987619 0.995176 0.993972 0.993203 0.990485 0.993736 0.989693 0.987619 0.984775 0.993972 0.994167 0.990485 0.989135 0.997496 0.992989 0.993869 0.990599 0.988889 0.994664 0.993866 0.986497 0.992989 0.996342 0.990599 0.993084 0.994664 0.997955 0.986497 0.996524 0.993869 0.990599 0.994024 0.993104 0.993866 0.986497 0.997277 0.994822 0.990599 0.993084 0.993104 0.996586 0.986497 0.996524 0.994822 0.998377 0.988889 0.994664 0.993866 0.986497 0.995403 0.986148 0.990509 0.995495 0.994664 0.997955 0.986497 0.996524 0.986148 0.999434 0.995495 0.992666 0.993866 0.986497 0.997277 0.994822 0.990509 0.995495 0.997837 0.995018 0.986497 0.996524 0.994822 0.998377 0.995495 0.992666 0.995018 0.997899 0.995044 0.994352 0.989194 0.987579 0.989049 0.99017 0.990195 0.988819 0.994352 0.99939 0.987579 0.992688 0.99017 0.992333 0.988819 0.993454 0.989194 0.987579 0.972577 0.983461 0.990195 0.988819 0.97855 0.975394 0.987579 0.992688 0.983461 0.984052 0.988819 0.993454 0.975394 0.984013 0.989049 0.99017 0.990195 0.988819 0.996082 0.993597 0.990027 0.988756 0.99017 0.992333 0.988819 0.993454 0.993597 0.993256 0.988756 0.987553 0.990195 0.988819 0.97855 0.975394 0.990027 0.988756 0.976561 0.981103 0.988819 0.993454 0.975394 0.984013 0.988756 0.987553 0.981103 0.983628 0.99939 0.998488 0.992688 0.991983 0.992333 0.994335 0.993454 0.989138 0.998488 0.996341 0.991983 0.994745 0.994335 0.99363 0.989138 0.99186 0.992688 0.991983 0.984052 0.987822 0.993454 0.989138 0.984013 0.983843 0.991983 0.994745 0.987822 0.993744 0.989138 0.99186 0.983843 0.988169 0.992333 0.994335 0.993454 0.989138 0.993256 0.999566 0.987553 0.990433 0.994335 0.99363 0.989138 0.99186 0.999566 0.999459 0.990433 0.994584 0.993454 0.989138 0.984013 0.983843 0.987553 0.990433 0.983628 0.990642 0.989138 0.99186 0.983843 0.988169 0.990433 0.994584 0.990642 0.99328 0.996082 0.993597 0.990027 0.988756 0.997341 0.995052 0.989505 0.991256 0.993597 0.993256 0.988756 0.987553 0.995052 0.999566 0.991256 0.990433 0.990027 0.988756 0.976561 0.981103 0.989505 0.991256 0.984851 0.981389 0.988756 0.987553 0.981103 0.983628 0.991256 0.990433 0.981389 0.990642 0.997341 0.995052 0.989505 0.991256 0.993946 0.996307 0.993124 0.992946 0.995052 0.999566 0.991256 0.990433 0.996307 0.999459 0.992946 0.994584 0.989505 0.991256 0.984851 0.981389 0.993124 0.992946 0.991173 0.990905 0.991256 0.990433 0.981389 0.990642 0.992946 0.994584 0.990905 0.99328 0.995044 0.994352 0.989049 0.99017 0.993257 0.99585 0.990035 0.986519 0.994352 0.99939 0.99017 0.992333 0.99585 0.998488 0.986519 0.994335 0.989049 0.99017 0.996082 0.993597 0.990035 0.986519 0.997341 0.995052 0.99017 0.992333 0.993597 0.993256 0.986519 0.994335 0.995052 0.999566 0.993257 0.99585 0.990035 0.986519 0.995403 0.990073 0.99399 0.990593 0.99585 0.998488 0.986519 0.994335 0.990073 0.996341 0.990593 0.99363 0.990035 0.986519 0.997341 0.995052 0.99399 0.990593 0.993946 0.996307 0.986519 0.994335 0.995052 0.999566 0.990593 0.99363 0.996307 0.999459 0.996742 1.00012 0.995872 1.00108 1.00086 0.999956 1.00231 1.0016 1.00012 1.00504 1.00108 1.0067 0.999956 1.00194 1.0016 1.00303 0.995872 1.00108 0.996912 1.00085 1.00231 1.0016 1.0011 1.00185 1.00108 1.0067 1.00085 1.00865 1.0016 1.00303 1.00185 1.0078 1.00086 0.999956 1.00231 1.0016 0.998639 0.998621 1.00223 1.00076 0.999956 1.00194 1.0016 1.00303 0.998621 1.00491 1.00076 1.00692 1.00231 1.0016 1.0011 1.00185 1.00223 1.00076 1.00367 1.00462 1.0016 1.00303 1.00185 1.0078 1.00076 1.00692 1.00462 1.00816 1.00504 1.00213 1.0067 1.00325 1.00194 1.00253 1.00303 1.00097 1.00213 1.00284 1.00325 1.00662 1.00253 1.00054 1.00097 0.999264 1.0067 1.00325 1.00865 1.00915 1.00303 1.00097 1.0078 1.01259 1.00325 1.00662 1.00915 1.01336 1.00097 0.999264 1.01259 1.01266 1.00194 1.00253 1.00303 1.00097 1.00491 1.00691 1.00692 1.00727 1.00253 1.00054 1.00097 0.999264 1.00691 1.00814 1.00727 1.00751 1.00303 1.00097 1.0078 1.01259 1.00692 1.00727 1.00816 1.01372 1.00097 0.999264 1.01259 1.01266 1.00727 1.00751 1.01372 1.00825 0.998639 0.998621 1.00223 1.00076 0.997964 1.00251 1.00274 1.0014 0.998621 1.00491 1.00076 1.00692 1.00251 1.00691 1.0014 1.00727 1.00223 1.00076 1.00367 1.00462 1.00274 1.0014 1.00644 1.00851 1.00076 1.00692 1.00462 1.00816 1.0014 1.00727 1.00851 1.01372 0.997964 1.00251 1.00274 1.0014 1.00063 1.00238 1.00412 1.00419 1.00251 1.00691 1.0014 1.00727 1.00238 1.00814 1.00419 1.00751 1.00274 1.0014 1.00644 1.00851 1.00412 1.00419 1.01056 1.01059 1.0014 1.00727 1.00851 1.01372 1.00419 1.00751 1.01059 1.00825 0.996742 1.00012 1.00086 0.999956 0.993531 0.998745 0.9968 0.998836 1.00012 1.00504 0.999956 1.00194 0.998745 1.00213 0.998836 1.00253 1.00086 0.999956 0.998639 0.998621 0.9968 0.998836 0.997964 1.00251 0.999956 1.00194 0.998621 1.00491 0.998836 1.00253 1.00251 1.00691 0.993531 0.998745 0.9968 0.998836 0.995403 1.00296 0.996086 0.99592 0.998745 1.00213 0.998836 1.00253 1.00296 1.00284 0.99592 1.00054 0.9968 0.998836 0.997964 1.00251 0.996086 0.99592 1.00063 1.00238 0.998836 1.00253 1.00251 1.00691 0.99592 1.00054 1.00238 1.00814 1.00242 1.00179 1.00701 1.00617 1.00175 1.00526 1.00484 1.00619 1.00179 0.999025 1.00617 1.00212 1.00526 1.00086 1.00619 1.00393 1.00701 1.00617 1.00944 1.01138 1.00484 1.00619 1.01098 1.01104 1.00617 1.00212 1.01138 1.00429 1.00619 1.00393 1.01104 1.00578 1.00175 1.00526 1.00484 1.00619 1.00779 1.00929 1.00951 1.01041 1.00526 1.00086 1.00619 1.00393 1.00929 1.00242 1.01041 1.00432 1.00484 1.00619 1.01098 1.01104 1.00951 1.01041 1.01359 1.01374 1.00619 1.00393 1.01104 1.00578 1.01041 1.00432 1.01374 1.00639 0.999025 0.997649 1.00212 1.00133 1.00086 0.99958 1.00393 1.00638 0.997649 0.993601 1.00133 0.998673 0.99958 0.999058 1.00638 1.0053 1.00212 1.00133 1.00429 1.00017 1.00393 1.00638 1.00578 1.00563 1.00133 0.998673 1.00017 0.992003 1.00638 1.0053 1.00563 1.00283 1.00086 0.99958 1.00393 1.00638 1.00242 0.996283 1.00432 1.00189 0.99958 0.999058 1.00638 1.0053 0.996283 0.995289 1.00189 1.00032 1.00393 1.00638 1.00578 1.00563 1.00432 1.00189 1.00639 1.00262 1.00638 1.0053 1.00563 1.00283 1.00189 1.00032 1.00262 1.00331 1.00779 1.00929 1.00951 1.01041 1.00927 1.00708 1.00925 1.00486 1.00929 1.00242 1.01041 1.00432 1.00708 0.996283 1.00486 1.00189 1.00951 1.01041 1.01359 1.01374 1.00925 1.00486 1.01529 1.00811 1.01041 1.00432 1.01374 1.00639 1.00486 1.00189 1.00811 1.00262 1.00927 1.00708 1.00925 1.00486 1.00472 1.00491 1.00617 1.00443 1.00708 0.996283 1.00486 1.00189 1.00491 0.995289 1.00443 1.00032 1.00925 1.00486 1.01529 1.00811 1.00617 1.00443 1.01588 1.00938 1.00486 1.00189 1.00811 1.00262 1.00443 1.00032 1.00938 1.00331 1.00242 1.00179 1.00175 1.00526 1.00357 1.00034 1.00539 1.00548 1.00179 0.999025 1.00526 1.00086 1.00034 0.997649 1.00548 0.99958 1.00175 1.00526 1.00779 1.00929 1.00539 1.00548 1.00927 1.00708 1.00526 1.00086 1.00929 1.00242 1.00548 0.99958 1.00708 0.996283 1.00357 1.00034 1.00539 1.00548 0.995403 1.00038 1.00945 1.00353 1.00034 0.997649 1.00548 0.99958 1.00038 0.993601 1.00353 0.999058 1.00539 1.00548 1.00927 1.00708 1.00945 1.00353 1.00472 1.00491 1.00548 0.99958 1.00708 0.996283 1.00353 0.999058 1.00491 0.995289 1.00242 1.00175 1.00701 1.00484 0.998475 0.995564 1.00396 1.00093 1.00175 1.00779 1.00484 1.00951 0.995564 1.00291 1.00093 1.00568 1.00701 1.00484 1.00944 1.01098 1.00396 1.00093 1.00577 1.00374 1.00484 1.00951 1.01098 1.01359 1.00093 1.00568 1.00374 1.00361 0.998475 0.995564 1.00396 1.00093 0.999877 0.999705 1.00381 1.00495 0.995564 1.00291 1.00093 1.00568 0.999705 1.00278 1.00495 1.00724 1.00396 1.00093 1.00577 1.00374 1.00381 1.00495 1.00613 1.00794 1.00093 1.00568 1.00374 1.00361 1.00495 1.00724 1.00794 1.00919 1.00779 1.00927 1.00951 1.00925 1.00291 1.00287 1.00568 1.00329 1.00927 1.00472 1.00925 1.00617 1.00287 1.0033 1.00329 1.00455 1.00951 1.00925 1.01359 1.01529 1.00568 1.00329 1.00361 1.01118 1.00925 1.00617 1.01529 1.01588 1.00329 1.00455 1.01118 1.01215 1.00291 1.00287 1.00568 1.00329 1.00278 0.999378 1.00724 1.00362 1.00287 1.0033 1.00329 1.00455 0.999378 0.996439 1.00362 1.00098 1.00568 1.00329 1.00361 1.01118 1.00724 1.00362 1.00919 1.01132 1.00329 1.00455 1.01118 1.01215 1.00362 1.00098 1.01132 1.00446 0.999877 0.999705 1.00381 1.00495 0.996336 0.999496 0.997482 1.00297 0.999705 1.00278 1.00495 1.00724 0.999496 0.999378 1.00297 1.00362 1.00381 1.00495 1.00613 1.00794 0.997482 1.00297 0.999816 1.00497 1.00495 1.00724 1.00794 1.00919 1.00297 1.00362 1.00497 1.01132 0.996336 0.999496 0.997482 1.00297 0.997837 0.995224 0.995176 0.997838 0.999496 0.999378 1.00297 1.00362 0.995224 0.996439 0.997838 1.00098 0.997482 1.00297 0.999816 1.00497 0.995176 0.997838 0.993203 0.998847 1.00297 1.00362 1.00497 1.01132 0.997838 1.00098 0.998847 1.00446 1.00242 1.00175 0.998475 0.995564 1.00357 1.00539 0.996729 1.00047 1.00175 1.00779 0.995564 1.00291 1.00539 1.00927 1.00047 1.00287 0.998475 0.995564 0.999877 0.999705 0.996729 1.00047 0.996336 0.999496 0.995564 1.00291 0.999705 1.00278 1.00047 1.00287 0.999496 0.999378 1.00357 1.00539 0.996729 1.00047 0.995403 1.00945 0.990509 0.993769 1.00539 1.00927 1.00047 1.00287 1.00945 1.00472 0.993769 1.0033 0.996729 1.00047 0.996336 0.999496 0.990509 0.993769 0.997837 0.995224 1.00047 1.00287 0.999496 0.999378 0.993769 1.0033 0.995224 0.996439 0.995872 1.0011 0.997429 1.00199 1.00253 1.00308 1.00348 1.00374 1.0011 0.997719 1.00199 1.00179 1.00308 1.00265 1.00374 1.00492 0.997429 1.00199 0.993058 1.00138 1.00348 1.00374 1.00069 1.00345 1.00199 1.00179 1.00138 1.00791 1.00374 1.00492 1.00345 1.00437 1.00253 1.00308 1.00348 1.00374 1.00012 0.99999 1.00292 1.00337 1.00308 1.00265 1.00374 1.00492 0.99999 1.00219 1.00337 1.00493 1.00348 1.00374 1.00069 1.00345 1.00292 1.00337 1.00217 1.00634 1.00374 1.00492 1.00345 1.00437 1.00337 1.00493 1.00634 1.01185 0.997719 0.999126 1.00179 1.00199 1.00265 1.00189 1.00492 1.00627 0.999126 1.00014 1.00199 1.00201 1.00189 1.00396 1.00627 1.00348 1.00179 1.00199 1.00791 1.00909 1.00492 1.00627 1.00437 1.01401 1.00199 1.00201 1.00909 1.01436 1.00627 1.00348 1.01401 1.00916 1.00265 1.00189 1.00492 1.00627 1.00219 1.00342 1.00493 1.00429 1.00189 1.00396 1.00627 1.00348 1.00342 1.00361 1.00429 1.00611 1.00492 1.00627 1.00437 1.01401 1.00493 1.00429 1.01185 1.01193 1.00627 1.00348 1.01401 1.00916 1.00429 1.00611 1.01193 1.00841 1.00012 0.99999 1.00292 1.00337 1.00307 1.00295 1.00338 1.00289 0.99999 1.00219 1.00337 1.00493 1.00295 1.00342 1.00289 1.00429 1.00292 1.00337 1.00217 1.00634 1.00338 1.00289 1.01188 1.00758 1.00337 1.00493 1.00634 1.01185 1.00289 1.00429 1.00758 1.01193 1.00307 1.00295 1.00338 1.00289 1.00284 1.00728 1.00662 1.0079 1.00295 1.00342 1.00289 1.00429 1.00728 1.00361 1.0079 1.00611 1.00338 1.00289 1.01188 1.00758 1.00662 1.0079 1.01336 1.01509 1.00289 1.00429 1.00758 1.01193 1.0079 1.00611 1.01509 1.00841 0.995872 1.0011 1.00253 1.00308 0.997545 0.996565 1.00307 1.00262 1.0011 0.997719 1.00308 1.00265 0.996565 0.999126 1.00262 1.00189 1.00253 1.00308 1.00012 0.99999 1.00307 1.00262 1.00307 1.00295 1.00308 1.00265 0.99999 1.00219 1.00262 1.00189 1.00295 1.00342 0.997545 0.996565 1.00307 1.00262 0.995403 1.00183 1.00296 1.00671 0.996565 0.999126 1.00262 1.00189 1.00183 1.00014 1.00671 1.00396 1.00307 1.00262 1.00307 1.00295 1.00296 1.00671 1.00284 1.00728 1.00262 1.00189 1.00295 1.00342 1.00671 1.00396 1.00728 1.00361 0.993601 0.999223 0.998673 1.00205 0.999058 0.997755 1.0053 1.00645 0.999223 1.00121 1.00205 1.00344 0.997755 0.993917 1.00645 1.00022 0.998673 1.00205 0.992003 1.00022 1.0053 1.00645 1.00283 1.00165 1.00205 1.00344 1.00022 1.00152 1.00645 1.00022 1.00165 0.997611 0.999058 0.997755 1.0053 1.00645 0.995289 0.993656 1.00032 0.997809 0.997755 0.993917 1.00645 1.00022 0.993656 0.994607 0.997809 0.99965 1.0053 1.00645 1.00283 1.00165 1.00032 0.997809 1.00331 1.0023 1.00645 1.00022 1.00165 0.997611 0.997809 0.99965 1.0023 1.00539 1.00359 1.01158 1.00862 1.00901 1.00157 1.00389 1.00292 1.00544 1.01158 1.01046 1.00901 1.01239 1.00389 1.00998 1.00544 1.01018 1.00862 1.00901 1.01231 1.01436 1.00292 1.00544 1.00798 1.01201 1.00901 1.01239 1.01436 1.01508 1.00544 1.01018 1.01201 1.01461 1.00157 1.00389 1.00292 1.00544 1.00121 0.993917 1.00344 1.00022 1.00389 1.00998 1.00544 1.01018 0.993917 0.994607 1.00022 0.99965 1.00292 1.00544 1.00798 1.01201 1.00344 1.00022 1.00152 0.997611 1.00544 1.01018 1.01201 1.01461 1.00022 0.99965 0.997611 1.00539 1.00472 1.00491 1.00617 1.00443 1.01008 1.00732 1.00977 1.00518 1.00491 0.995289 1.00443 1.00032 1.00732 0.993656 1.00518 0.997809 1.00617 1.00443 1.01588 1.00938 1.00977 1.00518 1.01212 1.01293 1.00443 1.00032 1.00938 1.00331 1.00518 0.997809 1.01293 1.0023 1.01008 1.00732 1.00977 1.00518 1.01046 1.00998 1.01239 1.01018 1.00732 0.993656 1.00518 0.997809 1.00998 0.994607 1.01018 0.99965 1.00977 1.00518 1.01212 1.01293 1.01239 1.01018 1.01508 1.01461 1.00518 0.997809 1.01293 1.0023 1.01018 0.99965 1.01461 1.00539 0.995403 1.00038 1.00945 1.00353 1.00837 0.999945 1.01363 1.00536 1.00038 0.993601 1.00353 0.999058 0.999945 0.999223 1.00536 0.997755 1.00945 1.00353 1.00472 1.00491 1.01363 1.00536 1.01008 1.00732 1.00353 0.999058 1.00491 0.995289 1.00536 0.997755 1.00732 0.993656 1.00837 0.999945 1.01363 1.00536 1.00359 1.00157 1.01158 1.00389 0.999945 0.999223 1.00536 0.997755 1.00157 1.00121 1.00389 0.993917 1.01363 1.00536 1.01008 1.00732 1.01158 1.00389 1.01046 1.00998 1.00536 0.997755 1.00732 0.993656 1.00389 0.993917 1.00998 0.994607 1.00231 0.997885 1.0054 1.00427 1.00204 1.0058 1.00289 1.00659 0.997885 0.999708 1.00427 1.00377 1.0058 1.00491 1.00659 1.00613 1.0054 1.00427 1.00765 1.00669 1.00289 1.00659 1.00248 1.00674 1.00427 1.00377 1.00669 1.00297 1.00659 1.00613 1.00674 1.00955 1.00204 1.0058 1.00289 1.00659 0.995768 1.00437 0.995583 1.00406 1.0058 1.00491 1.00659 1.00613 1.00437 1.00081 1.00406 1.00464 1.00289 1.00659 1.00248 1.00674 0.995583 1.00406 0.994529 1.00281 1.00659 1.00613 1.00674 1.00955 1.00406 1.00464 1.00281 1.00655 1.00231 1.00269 1.0054 1.00512 0.997885 0.998198 1.00427 1.00385 1.00269 1.00242 1.00512 1.00701 0.998198 0.999722 1.00385 1.00579 1.0054 1.00512 1.00765 1.01581 1.00427 1.00385 1.00669 1.00347 1.00512 1.00701 1.01581 1.00944 1.00385 1.00579 1.00347 1.00753 0.997885 0.998198 