# vtk DataFile Version 3.0
#This file was generated by the deal.II library on 2025/4/17 at 14:22:48
ASCII
DATASET UNSTRUCTURED_GRID

POINTS 8192 double
-0.351296 0.000427734 -0.357285
-0.459717 -0.00128031 -0.301563
-0.526567 -0.00967423 -0.532556
-0.637099 -0.00950641 -0.427157
-0.41211 -0.116913 -0.30327
-0.505626 -0.105377 -0.261598
-0.589063 -0.165429 -0.435295
-0.674903 -0.144115 -0.359444
-0.459717 -0.00128031 -0.301563
-0.566297 0.000374615 -0.238502
-0.637099 -0.00950641 -0.427157
-0.741124 -0.00532679 -0.314257
-0.505626 -0.105377 -0.261598
-0.597754 -0.0910216 -0.214853
-0.674903 -0.144115 -0.359444
-0.756639 -0.12031 -0.279279
-0.526567 -0.00967423 -0.532556
-0.637099 -0.00950641 -0.427157
-0.704955 0.00036939 -0.710705
-0.819433 -0.00250658 -0.551634
-0.589063 -0.165429 -0.435295
-0.674903 -0.144115 -0.359444
-0.771709 -0.202308 -0.566866
-0.849572 -0.173696 -0.454852
-0.637099 -0.00950641 -0.427157
-0.741124 -0.00532679 -0.314257
-0.819433 -0.00250658 -0.551634
-0.921112 0.000341234 -0.385235
-0.674903 -0.144115 -0.359444
-0.756639 -0.12031 -0.279279
-0.849572 -0.173696 -0.454852
-0.920074 -0.142511 -0.339613
-0.41211 -0.116913 -0.30327
-0.505626 -0.105377 -0.261598
-0.589063 -0.165429 -0.435295
-0.674903 -0.144115 -0.359444
-0.468874 -0.234749 -0.238549
-0.548183 -0.210269 -0.214069
-0.642664 -0.319163 -0.322962
-0.706279 -0.278185 -0.281985
-0.505626 -0.105377 -0.261598
-0.597754 -0.0910216 -0.214853
-0.674903 -0.144115 -0.359444
-0.756639 -0.12031 -0.279279
-0.548183 -0.210269 -0.214069
-0.62652 -0.183461 -0.18656
-0.706279 -0.278185 -0.281985
-0.767495 -0.235797 -0.238896
-0.589063 -0.165429 -0.435295
-0.674903 -0.144115 -0.359444
-0.771709 -0.202308 -0.566866
-0.849572 -0.173696 -0.454852
-0.642664 -0.319163 -0.322962
-0.706279 -0.278185 -0.281985
-0.822482 -0.398639 -0.402182
-0.869061 -0.341891 -0.345433
-0.674903 -0.144115 -0.359444
-0.756639 -0.12031 -0.279279
-0.849572 -0.173696 -0.454852
-0.920074 -0.142511 -0.339613
-0.706279 -0.278185 -0.281985
-0.767495 -0.235797 -0.238896
-0.869061 -0.341891 -0.345433
-0.911929 -0.284604 -0.287463
-0.566297 0.000374615 -0.238502
-0.5338 -0.0020645 -0.117701
-0.741124 -0.00532679 -0.314257
-0.746282 -0.0100769 -0.160814
-0.597754 -0.0910216 -0.214853
-0.567321 -0.105518 -0.107746
-0.756639 -0.12031 -0.279279
-0.754513 -0.142006 -0.144234
-0.5338 -0.0020645 -0.117701
-0.496796 0.000420023 -0.000797329
-0.746282 -0.0100769 -0.160814
-0.74248 -0.00952127 -0.0107386
-0.567321 -0.105518 -0.107746
-0.533677 -0.115431 -0.0032405
-0.754513 -0.142006 -0.144234
-0.746158 -0.158544 -0.0112529
-0.741124 -0.00532679 -0.314257
-0.746282 -0.0100769 -0.160814
-0.921112 0.000341234 -0.385235
-0.9661 -0.00295523 -0.192248
-0.756639 -0.12031 -0.279279
-0.754513 -0.142006 -0.144234
-0.920074 -0.142511 -0.339613
-0.947938 -0.169537 -0.17152
-0.746282 -0.0100769 -0.160814
-0.74248 -0.00952127 -0.0107386
-0.9661 -0.00295523 -0.192248
-0.996383 0.000439171 -0.000693041
-0.754513 -0.142006 -0.144234
-0.746158 -0.158544 -0.0112529
-0.947938 -0.169537 -0.17152
-0.965784 -0.190201 -0.00402283
-0.597754 -0.0910216 -0.214853
-0.567321 -0.105518 -0.107746
-0.756639 -0.12031 -0.279279
-0.754513 -0.142006 -0.144234
-0.62652 -0.183461 -0.18656
-0.59736 -0.21121 -0.0929464
-0.767495 -0.235797 -0.238896
-0.756244 -0.275636 -0.122235
-0.567321 -0.105518 -0.107746
-0.533677 -0.115431 -0.0032405
-0.754513 -0.142006 -0.144234
-0.746158 -0.158544 -0.0112529
-0.59736 -0.21121 -0.0929464
-0.565833 -0.234735 -0.000662349
-0.756244 -0.275636 -0.122235
-0.74066 -0.31049 -0.00636375
-0.756639 -0.12031 -0.279279
-0.754513 -0.142006 -0.144234
-0.920074 -0.142511 -0.339613
-0.947938 -0.169537 -0.17152
-0.767495 -0.235797 -0.238896
-0.756244 -0.275636 -0.122235
-0.911929 -0.284604 -0.287463
-0.919509 -0.33617 -0.144199
-0.754513 -0.142006 -0.144234
-0.746158 -0.158544 -0.0112529
-0.947938 -0.169537 -0.17152
-0.965784 -0.190201 -0.00402283
-0.756244 -0.275636 -0.122235
-0.74066 -0.31049 -0.00636375
-0.919509 -0.33617 -0.144199
-0.920343 -0.381626 -0.000572624
-0.468874 -0.234749 -0.238549
-0.548183 -0.210269 -0.214069
-0.642664 -0.319163 -0.322962
-0.706279 -0.278185 -0.281985
-0.411706 -0.29809 -0.119187
-0.505223 -0.256418 -0.107651
-0.588659 -0.430115 -0.167702
-0.6745 -0.354264 -0.146389
-0.548183 -0.210269 -0.214069
-0.62652 -0.183461 -0.18656
-0.706279 -0.278185 -0.281985
-0.767495 -0.235797 -0.238896
-0.505223 -0.256418 -0.107651
-0.59736 -0.21121 -0.0929464
-0.6745 -0.354264 -0.146389
-0.756244 -0.275636 -0.122235
-0.642664 -0.319163 -0.322962
-0.706279 -0.278185 -0.281985
-0.822482 -0.398639 -0.402182
-0.869061 -0.341891 -0.345433
-0.588659 -0.430115 -0.167702
-0.6745 -0.354264 -0.146389
-0.77101 -0.561729 -0.204289
-0.848873 -0.449715 -0.175677
-0.706279 -0.278185 -0.281985
-0.767495 -0.235797 -0.238896
-0.869061 -0.341891 -0.345433
-0.911929 -0.284604 -0.287463
-0.6745 -0.354264 -0.146389
-0.756244 -0.275636 -0.122235
-0.848873 -0.449715 -0.175677
-0.919509 -0.33617 -0.144199
-0.411706 -0.29809 -0.119187
-0.505223 -0.256418 -0.107651
-0.588659 -0.430115 -0.167702
-0.6745 -0.354264 -0.146389
-0.350958 -0.351715 -0.00073182
-0.45938 -0.295993 -0.00243987
-0.52623 -0.526986 -0.0108338
-0.636762 -0.421587 -0.010666
-0.505223 -0.256418 -0.107651
-0.59736 -0.21121 -0.0929464
-0.6745 -0.354264 -0.146389
-0.756244 -0.275636 -0.122235
-0.45938 -0.295993 -0.00243987
-0.565833 -0.234735 -0.000662349
-0.636762 -0.421587 -0.010666
-0.74066 -0.31049 -0.00636375
-0.588659 -0.430115 -0.167702
-0.6745 -0.354264 -0.146389
-0.77101 -0.561729 -0.204289
-0.848873 -0.449715 -0.175677
-0.52623 -0.526986 -0.0108338
-0.636762 -0.421587 -0.010666
-0.704203 -0.70503 -0.000639809
-0.818681 -0.545958 -0.00351578
-0.6745 -0.354264 -0.146389
-0.756244 -0.275636 -0.122235
-0.848873 -0.449715 -0.175677
-0.919509 -0.33617 -0.144199
-0.636762 -0.421587 -0.010666
-0.74066 -0.31049 -0.00636375
-0.818681 -0.545958 -0.00351578
-0.920343 -0.381626 -0.000572624
-0.351296 0.000427734 -0.357285
-0.459717 -0.00128031 -0.301563
-0.41211 -0.116913 -0.30327
-0.505626 -0.105377 -0.261598
-0.172152 -0.013999 -0.176928
-0.351713 -0.0136712 -0.155183
-0.292428 -0.154373 -0.157668
-0.430023 -0.13364 -0.136936
-0.459717 -0.00128031 -0.301563
-0.566297 0.000374615 -0.238502
-0.505626 -0.105377 -0.261598
-0.597754 -0.0910216 -0.214853
-0.351713 -0.0136712 -0.155183
-0.5338 -0.0020645 -0.117701
-0.430023 -0.13364 -0.136936
-0.567321 -0.105518 -0.107746
-0.41211 -0.116913 -0.30327
-0.505626 -0.105377 -0.261598
-0.468874 -0.234749 -0.238549
-0.548183 -0.210269 -0.214069
-0.292428 -0.154373 -0.157668
-0.430023 -0.13364 -0.136936
-0.411706 -0.29809 -0.119187
-0.505223 -0.256418 -0.107651
-0.505626 -0.105377 -0.261598
-0.597754 -0.0910216 -0.214853
-0.548183 -0.210269 -0.214069
-0.62652 -0.183461 -0.18656
-0.430023 -0.13364 -0.136936
-0.567321 -0.105518 -0.107746
-0.505223 -0.256418 -0.107651
-0.59736 -0.21121 -0.0929464
-0.172152 -0.013999 -0.176928
-0.351713 -0.0136712 -0.155183
-0.292428 -0.154373 -0.157668
-0.430023 -0.13364 -0.136936
0.00152319 0.000591942 -0.00116027
-0.242273 -0.0120356 -0.0137878
-0.172611 -0.173542 -0.0156602
-0.352171 -0.151797 -0.0153324
-0.351713 -0.0136712 -0.155183
-0.5338 -0.0020645 -0.117701
-0.430023 -0.13364 -0.136936
-0.567321 -0.105518 -0.107746
-0.242273 -0.0120356 -0.0137878
-0.496796 0.000420023 -0.000797329
-0.352171 -0.151797 -0.0153324
-0.533677 -0.115431 -0.0032405
-0.292428 -0.154373 -0.157668
-0.430023 -0.13364 -0.136936
-0.411706 -0.29809 -0.119187
-0.505223 -0.256418 -0.107651
-0.172611 -0.173542 -0.0156602
-0.352171 -0.151797 -0.0153324
-0.350958 -0.351715 -0.00073182
-0.45938 -0.295993 -0.00243987
-0.430023 -0.13364 -0.136936
-0.567321 -0.105518 -0.107746
-0.505223 -0.256418 -0.107651
-0.59736 -0.21121 -0.0929464
-0.352171 -0.151797 -0.0153324
-0.533677 -0.115431 -0.0032405
-0.45938 -0.295993 -0.00243987
-0.565833 -0.234735 -0.000662349
0.351706 -0.000119613 0.357061
0.409335 0.117541 0.288826
0.535571 -0.0282974 0.540926
0.594915 0.137139 0.405864
0.458146 -0.00437074 0.294596
0.501733 0.102279 0.246528
0.639806 -0.0302355 0.421299
0.676411 0.118359 0.33268
0.409335 0.117541 0.288826
0.469219 0.235045 0.238284
0.594915 0.137139 0.405864
0.658861 0.311608 0.314819
0.501733 0.102279 0.246528
0.546393 0.207821 0.211058
0.676411 0.118359 0.33268
0.715427 0.269054 0.272275
0.535571 -0.0282974 0.540926
0.594915 0.137139 0.405864
0.705431 -7.13152e-05 0.710487
0.756129 0.193246 0.52307
0.639806 -0.0302355 0.421299
0.676411 0.118359 0.33268
0.806196 -0.0162188 0.547874
0.829907 0.16163 0.425118
0.594915 0.137139 0.405864
0.658861 0.311608 0.314819
0.756129 0.193246 0.52307
0.81434 0.407619 0.410498
0.676411 0.118359 0.33268
0.715427 0.269054 0.272275
0.829907 0.16163 0.425118
0.857749 0.346108 0.349005
0.458146 -0.00437074 0.294596
0.501733 0.102279 0.246528
0.639806 -0.0302355 0.421299
0.676411 0.118359 0.33268
0.566642 -0.000117979 0.238281
0.596104 0.0929772 0.208453
0.751513 -0.0139355 0.306763
0.764233 0.108221 0.261435
0.501733 0.102279 0.246528
0.546393 0.207821 0.211058
0.676411 0.118359 0.33268
0.715427 0.269054 0.272275
0.596104 0.0929772 0.208453
0.625977 0.184581 0.187169
0.764233 0.108221 0.261435
0.778289 0.22896 0.231545
0.639806 -0.0302355 0.421299
0.676411 0.118359 0.33268
0.806196 -0.0162188 0.547874
0.829907 0.16163 0.425118
0.751513 -0.0139355 0.306763
0.764233 0.108221 0.261435
0.92149 -9.83353e-05 0.384978
0.915135 0.143572 0.325061
0.676411 0.118359 0.33268
0.715427 0.269054 0.272275
0.829907 0.16163 0.425118
0.857749 0.346108 0.349005
0.764233 0.108221 0.261435
0.778289 0.22896 0.231545
0.915135 0.143572 0.325061
0.911317 0.286353 0.288619
0.469219 0.235045 0.238284
0.408801 0.284185 0.119241
0.658861 0.311608 0.314819
0.594382 0.401241 0.138826
0.546393 0.207821 0.211058
0.5012 0.241888 0.103977
0.715427 0.269054 0.272275
0.675878 0.32805 0.120051
0.408801 0.284185 0.119241
0.351161 0.352033 0.000399408
0.594382 0.401241 0.138826
0.535026 0.535899 -0.0277784
[...]
POINT_DATA 8192
SCALARS M_0 double 1
LOOKUP_TABLE default
0.994904 1.00558 0.99534 1.00519 0.998292 0.999441 0.999406 1.00033 1.00558 1.00046 1.00519 1.00439 0.999441 0.996174 1.00033 0.998841 0.99534 1.00519 0.994167 1.00356 0.999406 1.00033 0.99929 1.00057 1.00519 1.00439 1.00356 1.00655 1.00033 0.998841 1.00057 0.999592 0.998292 0.999441 0.999406 1.00033 1.00499 1.00041 1.00663 1.00148 0.999441 0.996174 1.00033 0.998841 1.00041 1.00344 1.00148 1.00574 0.999406 1.00033 0.99929 1.00057 1.00663 1.00148 1.005 1.00137 1.00033 0.998841 1.00057 0.999592 1.00148 1.00574 1.00137 1.00987 1.00046 1.00107 1.00439 1.0025 0.996174 0.997846 0.998841 0.99911 1.00107 1.00232 1.0025 1.0042 0.997846 0.998425 0.99911 0.997349 1.00439 1.0025 1.00655 1.00673 0.998841 0.99911 0.999592 1.00301 1.0025 1.0042 1.00673 1.01253 0.99911 0.997349 1.00301 1.0118 0.996174 0.997846 0.998841 0.99911 1.00344 1.00675 1.00574 1.00632 0.997846 0.998425 0.99911 0.997349 1.00675 1.00755 1.00632 1.00473 0.998841 0.99911 0.999592 1.00301 1.00574 1.00632 1.00987 1.01297 0.99911 0.997349 1.00301 1.0118 1.00632 1.00473 1.01297 1.01173 1.00499 1.00041 1.00663 1.00148 1.00128 1.00166 1.00238 1.00113 1.00041 1.00344 1.00148 1.00574 1.00166 1.00675 1.00113 1.00632 1.00663 1.00148 1.005 1.00137 1.00238 1.00113 1.00711 1.00786 1.00148 1.00574 1.00137 1.00987 1.00113 1.00632 1.00786 1.01297 1.00128 1.00166 1.00238 1.00113 1.00463 1.00098 1.00344 0.999473 1.00166 1.00675 1.00113 1.00632 1.00098 1.00755 0.999473 1.00473 1.00238 1.00113 1.00711 1.00786 1.00344 0.999473 1.01371 1.00623 1.00113 1.00632 1.00786 1.01297 0.999473 1.00473 1.00623 1.01173 0.994904 1.00558 0.998292 0.999441 0.99622 0.999274 0.998683 0.996284 1.00558 1.00046 0.999441 0.996174 0.999274 1.00107 0.996284 0.997846 0.998292 0.999441 1.00499 1.00041 0.998683 0.996284 1.00128 1.00166 0.999441 0.996174 1.00041 1.00344 0.996284 0.997846 1.00166 1.00675 0.99622 0.999274 0.998683 0.996284 0.993796 0.995317 0.996103 0.994865 0.999274 1.00107 0.996284 0.997846 0.995317 1.00232 0.994865 0.998425 0.998683 0.996284 1.00128 1.00166 0.996103 0.994865 1.00463 1.00098 0.996284 0.997846 1.00166 1.00675 0.994865 0.998425 1.00098 1.00755 0.995176 0.999402 0.997489 0.99996 1.00129 1.00025 1.00235 1.00077 0.999402 1.00025 0.99996 1.00332 1.00025 1.00169 1.00077 1.00445 0.997489 0.99996 0.992664 1.00083 1.00235 1.00077 1.00157 1.00065 0.99996 1.00332 1.00083 1.00625 1.00077 1.00445 1.00065 1.0052 1.00129 1.00025 1.00235 1.00077 0.996457 0.996676 1.00107 1.00036 1.00025 1.00169 1.00077 1.00445 0.996676 1.0017 1.00036 1.00418 1.00235 1.00077 1.00157 1.00065 1.00107 1.00036 1.00739 1.0057 1.00077 1.00445 1.00065 1.0052 1.00036 1.00418 1.0057 1.00896 1.00025 1.00168 1.00332 1.00451 1.00169 1.00089 1.00445 1.00013 1.00168 1.00376 1.00451 1.00855 1.00089 0.998195 1.00013 0.997294 1.00332 1.00451 1.00625 1.00949 1.00445 1.00013 1.0052 1.01026 1.00451 1.00855 1.00949 1.0131 1.00013 0.997294 1.01026 1.00443 1.00169 1.00089 1.00445 1.00013 1.0017 1.00626 1.00418 1.00629 1.00089 0.998195 1.00013 0.997294 1.00626 1.00806 1.00629 1.00909 1.00445 1.00013 1.0052 1.01026 1.00418 1.00629 1.00896 1.01121 1.00013 0.997294 1.01026 1.00443 1.00629 1.00909 1.01121 1.00996 0.996457 0.996676 1.00107 1.00036 0.997908 1.00207 1.00076 1.00397 0.996676 1.0017 1.00036 1.00418 1.00207 1.00626 1.00397 1.00629 1.00107 1.00036 1.00739 1.0057 1.00076 1.00397 1.00871 1.00705 1.00036 1.00418 1.0057 1.00896 1.00397 1.00629 1.00705 1.01121 0.997908 1.00207 1.00076 1.00397 0.998766 1.00446 1.00077 1.00065 1.00207 1.00626 1.00397 1.00629 1.00446 1.00806 1.00065 1.00909 1.00076 1.00397 1.00871 1.00705 1.00077 1.00065 1.01404 1.01196 1.00397 1.00629 1.00705 1.01121 1.00065 1.00909 1.01196 1.00996 0.995176 0.999402 1.00129 1.00025 0.996822 0.996913 0.99506 0.999264 0.999402 1.00025 1.00025 1.00169 0.996913 1.00168 0.999264 1.00089 1.00129 1.00025 0.996457 0.996676 0.99506 0.999264 0.997908 1.00207 1.00025 1.00169 0.996676 1.0017 0.999264 1.00089 1.00207 1.00626 0.996822 0.996913 0.99506 0.999264 0.993796 1.01077 1.00205 0.992038 0.996913 1.00168 0.999264 1.00089 1.01077 1.00376 0.992038 0.998195 0.99506 0.999264 0.997908 1.00207 1.00205 0.992038 0.998766 1.00446 0.999264 1.00089 1.00207 1.00626 0.992038 0.998195 1.00446 1.00806 0.998978 0.992999 0.985221 0.990511 0.993844 0.990198 0.991771 0.984674 0.992999 0.997664 0.990511 0.991929 0.990198 0.993822 0.984674 0.989139 0.985221 0.990511 0.981587 0.967913 0.991771 0.984674 0.976721 0.979644 0.990511 0.991929 0.967913 0.984503 0.984674 0.989139 0.979644 0.975171 0.993844 0.990198 0.991771 0.984674 0.995368 0.993891 0.989323 0.989062 0.990198 0.993822 0.984674 0.989139 0.993891 0.997653 0.989062 0.994385 0.991771 0.984674 0.976721 0.979644 0.989323 0.989062 0.977178 0.982123 0.984674 0.989139 0.979644 0.975171 0.989062 0.994385 0.982123 0.978102 0.997664 0.998733 0.991929 0.995162 0.993822 0.99649 0.989139 0.987573 0.998733 0.999604 0.995162 0.995198 0.99649 0.991525 0.987573 0.989631 0.991929 0.995162 0.984503 0.990241 0.989139 0.987573 0.975171 0.987678 0.995162 0.995198 0.990241 0.992131 0.987573 0.989631 0.987678 0.98974 0.993822 0.99649 0.989139 0.987573 0.997653 0.999806 0.994385 0.990702 0.99649 0.991525 0.987573 0.989631 0.999806 0.998697 0.990702 0.994464 0.989139 0.987573 0.975171 0.987678 0.994385 0.990702 0.978102 0.984815 0.987573 0.989631 0.987678 0.98974 0.990702 0.994464 0.984815 0.989011 0.995368 0.993891 0.989323 0.989062 0.997917 0.995281 0.993941 0.993627 0.993891 0.997653 0.989062 0.994385 0.995281 0.999806 0.993627 0.990702 0.989323 0.989062 0.977178 0.982123 0.993941 0.993627 0.986208 0.987177 0.989062 0.994385 0.982123 0.978102 0.993627 0.990702 0.987177 0.984815 0.997917 0.995281 0.993941 0.993627 0.997533 0.994118 0.994655 0.993329 0.995281 0.999806 0.993627 0.990702 0.994118 0.998697 0.993329 0.994464 0.993941 0.993627 0.986208 0.987177 0.994655 0.993329 0.992598 0.989837 0.993627 0.990702 0.987177 0.984815 0.993329 0.994464 0.989837 0.989011 0.998978 0.992999 0.993844 0.990198 0.985745 0.993867 0.992783 0.983521 0.992999 0.997664 0.990198 0.993822 0.993867 0.998733 0.983521 0.99649 0.993844 0.990198 0.995368 0.993891 0.992783 0.983521 0.997917 0.995281 0.990198 0.993822 0.993891 0.997653 0.983521 0.99649 0.995281 0.999806 0.985745 0.993867 0.992783 0.983521 0.993796 0.98163 0.987414 0.994324 0.993867 0.998733 0.983521 0.99649 0.98163 0.999604 0.994324 0.991525 0.992783 0.983521 0.997917 0.995281 0.987414 0.994324 0.997533 0.994118 0.983521 0.99649 0.995281 0.999806 0.994324 0.991525 0.994118 0.998697 0.995772 0.994703 0.989703 0.98842 0.988639 0.98965 0.990131 0.988826 0.994703 1.00074 0.98842 0.993543 0.98965 0.993074 0.988826 0.993479 0.989703 0.98842 0.972273 0.982783 0.990131 0.988826 0.977665 0.97447 0.98842 0.993543 0.982783 0.983778 0.988826 0.993479 0.97447 0.983176 0.988639 0.98965 0.990131 0.988826 0.996914 0.994597 0.990358 0.989193 0.98965 0.993074 0.988826 0.993479 0.994597 0.994886 0.989193 0.988597 0.990131 0.988826 0.977665 0.97447 0.990358 0.989193 0.976036 0.98039 0.988826 0.993479 0.97447 0.983176 0.989193 0.988597 0.98039 0.98332 1.00074 0.999497 0.993543 0.992448 0.993074 0.994094 0.993479 0.988654 0.999497 0.995605 0.992448 0.994123 0.994094 0.99271 0.988654 0.991283 0.993543 0.992448 0.983778 0.987665 0.993479 0.988654 0.983176 0.983013 0.992448 0.994123 0.987665 0.992863 0.988654 0.991283 0.983013 0.987364 0.993074 0.994094 0.993479 0.988654 0.994886 1.00094 0.988597 0.991295 0.994094 0.99271 0.988654 0.991283 1.00094 1.00081 0.991295 0.995523 0.993479 0.988654 0.983176 0.983013 0.988597 0.991295 0.98332 0.9905 0.988654 0.991283 0.983013 0.987364 0.991295 0.995523 0.9905 0.993367 0.996914 0.994597 0.990358 0.989193 0.997576 0.995721 0.989231 0.991184 0.994597 0.994886 0.989193 0.988597 0.995721 1.00094 0.991184 0.991295 0.990358 0.989193 0.976036 0.98039 0.989231 0.991184 0.98419 0.980935 0.989193 0.988597 0.98039 0.98332 0.991184 0.991295 0.980935 0.9905 0.997576 0.995721 0.989231 0.991184 0.992577 0.996085 0.992155 0.992962 0.995721 1.00094 0.991184 0.991295 0.996085 1.00081 0.992962 0.995523 0.989231 0.991184 0.98419 0.980935 0.992155 0.992962 0.989869 0.990333 0.991184 0.991295 0.980935 0.9905 0.992962 0.995523 0.990333 0.993367 0.995772 0.994703 0.988639 0.98965 0.991575 0.995039 0.987795 0.98372 0.994703 1.00074 0.98965 0.993074 0.995039 0.999497 0.98372 0.994094 0.988639 0.98965 0.996914 0.994597 0.987795 0.98372 0.997576 0.995721 0.98965 0.993074 0.994597 0.994886 0.98372 0.994094 0.995721 1.00094 0.991575 0.995039 0.987795 0.98372 0.993796 0.986852 0.992155 0.988056 0.995039 0.999497 0.98372 0.994094 0.986852 0.995605 0.988056 0.99271 0.987795 0.98372 0.997576 0.995721 0.992155 0.988056 0.992577 0.996085 0.98372 0.994094 0.995721 1.00094 0.988056 0.99271 0.996085 1.00081 0.996265 1.00007 0.995716 1.00119 1.00094 0.999513 1.00273 1.00116 1.00007 1.00587 1.00119 1.00744 0.999513 1.00141 1.00116 1.00257 0.995716 1.00119 0.996813 1.00097 1.00273 1.00116 1.00121 1.00146 1.00119 1.00744 1.00097 1.00946 1.00116 1.00257 1.00146 1.00735 1.00094 0.999513 1.00273 1.00116 0.99728 0.996943 1.00136 0.999475 0.999513 1.00141 1.00116 1.00257 0.996943 1.00444 0.999475 1.00659 1.00273 1.00116 1.00121 1.00146 1.00136 0.999475 1.0032 1.00377 1.00116 1.00257 1.00146 1.00735 0.999475 1.00659 1.00377 1.00839 1.00587 1.00178 1.00744 1.00244 1.00141 1.00181 1.00257 0.999403 1.00178 1.00264 1.00244 1.00605 1.00181 0.999049 0.999403 0.996889 1.00744 1.00244 1.00946 1.00919 1.00257 0.999403 1.00735 1.0119 1.00244 1.00605 1.00919 1.01373 0.999403 0.996889 1.0119 1.01157 1.00141 1.00181 1.00257 0.999403 1.00444 1.00696 1.00659 1.00727 1.00181 0.999049 0.999403 0.996889 1.00696 1.00815 1.00727 1.00733 1.00257 0.999403 1.00735 1.0119 1.00659 1.00727 1.00839 1.01424 0.999403 0.996889 1.0119 1.01157 1.00727 1.00733 1.01424 1.00903 0.99728 0.996943 1.00136 0.999475 0.996519 1.00156 1.00122 1.00042 0.996943 1.00444 0.999475 1.00659 1.00156 1.00696 1.00042 1.00727 1.00136 0.999475 1.0032 1.00377 1.00122 1.00042 1.00583 1.00828 0.999475 1.00659 1.00377 1.00839 1.00042 1.00727 1.00828 1.01424 0.996519 1.00156 1.00122 1.00042 0.999438 1.00226 1.00254 1.00297 1.00156 1.00696 1.00042 1.00727 1.00226 1.00815 1.00297 1.00733 1.00122 1.00042 1.00583 1.00828 1.00254 1.00297 1.01016 1.0107 1.00042 1.00727 1.00828 1.01424 1.00297 1.00733 1.0107 1.00903 0.996265 1.00007 1.00094 0.999513 0.991427 0.997923 0.995429 0.997754 1.00007 1.00587 0.999513 1.00141 0.997923 1.00178 0.997754 1.00181 1.00094 0.999513 0.99728 0.996943 0.995429 0.997754 0.996519 1.00156 0.999513 1.00141 0.996943 1.00444 0.997754 1.00181 1.00156 1.00696 0.991427 0.997923 0.995429 0.997754 0.993796 1.00351 0.994303 0.993947 0.997923 1.00178 0.997754 1.00181 1.00351 1.00264 0.993947 0.999049 0.995429 0.997754 0.996519 1.00156 0.994303 0.993947 0.999438 1.00226 0.997754 1.00181 1.00156 1.00696 0.993947 0.999049 1.00226 1.00815 1.00233 1.00146 1.00707 1.00579 1.00122 1.0055 1.00426 1.0065 1.00146 0.997909 1.00579 1.00157 1.0055 0.99959 1.0065 1.00345 1.00707 1.00579 1.01003 1.0116 1.00426 1.0065 1.01092 1.01175 1.00579 1.00157 1.0116 1.00418 1.0065 1.00345 1.01175 1.00577 1.00122 1.0055 1.00426 1.0065 1.00837 1.01025 1.00998 1.01121 1.0055 0.99959 1.0065 1.00345 1.01025 1.00138 1.01121 1.00358 1.00426 1.0065 1.01092 1.01175 1.00998 1.01121 1.01434 1.01494 1.0065 1.00345 1.01175 1.00577 1.01121 1.00358 1.01494 1.00624 0.997909 0.99685 1.00157 1.0019 0.99959 0.99863 1.00345 1.00744 0.99685 0.991945 1.0019 0.998839 0.99863 0.998485 1.00744 1.00689 1.00157 1.0019 1.00418 1.00033 1.00345 1.00744 1.00577 1.00611 1.0019 0.998839 1.00033 0.991395 1.00744 1.00689 1.00611 1.00346 0.99959 0.99863 1.00345 1.00744 1.00138 0.99413 1.00358 1.00037 0.99863 0.998485 1.00744 1.00689 0.99413 0.992672 1.00037 0.998799 1.00345 1.00744 1.00577 1.00611 1.00358 1.00037 1.00624 1.0017 1.00744 1.00689 1.00611 1.00346 1.00037 0.998799 1.0017 1.00218 1.00837 1.01025 1.00998 1.01121 1.0108 1.00791 1.00962 1.00459 1.01025 1.00138 1.01121 1.00358 1.00791 0.99413 1.00459 1.00037 1.00998 1.01121 1.01434 1.01494 1.00962 1.00459 1.01622 1.00875 1.01121 1.00358 1.01494 1.00624 1.00459 1.00037 1.00875 1.0017 1.0108 1.00791 1.00962 1.00459 1.00572 1.00557 1.00651 1.00391 1.00791 0.99413 1.00459 1.00037 1.00557 0.992672 1.00391 0.998799 1.00962 1.00459 1.01622 1.00875 1.00651 1.00391 1.01671 1.0099 1.00459 1.00037 1.00875 1.0017 1.00391 0.998799 1.0099 1.00218 1.00233 1.00146 1.00122 1.0055 1.00444 1.00023 1.00633 1.00645 1.00146 0.997909 1.0055 0.99959 1.00023 0.99685 1.00645 0.99863 1.00122 1.0055 1.00837 1.01025 1.00633 1.00645 1.0108 1.00791 1.0055 0.99959 1.01025 1.00138 1.00645 0.99863 1.00791 0.99413 1.00444 1.00023 1.00633 1.00645 0.993796 1.00062 1.01216 1.00453 1.00023 0.99685 1.00645 0.99863 1.00062 0.991945 1.00453 0.998485 1.00633 1.00645 1.0108 1.00791 1.01216 1.00453 1.00572 1.00557 1.00645 0.99863 1.00791 0.99413 1.00453 0.998485 1.00557 0.992672 1.00233 1.00122 1.00707 1.00426 0.997116 0.993493 1.00275 0.999392 1.00122 1.00837 1.00426 1.00998 0.993493 1.00176 0.999392 1.00478 1.00707 1.00426 1.01003 1.01092 1.00275 0.999392 1.00556 1.00323 1.00426 1.00998 1.01092 1.01434 0.999392 1.00478 1.00323 1.00378 0.997116 0.993493 1.00275 0.999392 0.999115 0.99864 1.00374 1.00448 0.993493 1.00176 0.999392 1.00478 0.99864 1.0019 1.00448 1.00686 1.00275 0.999392 1.00556 1.00323 1.00374 1.00448 1.0066 1.00817 0.999392 1.00478 1.00323 1.00378 1.00448 1.00686 1.00817 1.00963 1.00837 1.0108 1.00998 1.00962 1.00176 1.00281 1.00478 1.00261 1.0108 1.00572 1.00962 1.00651 1.00281 1.00316 1.00261 1.00344 1.00998 1.00962 1.01434 1.01622 1.00478 1.00261 1.00378 1.01143 1.00962 1.00651 1.01622 1.01671 1.00261 1.00344 1.01143 1.01235 1.00176 1.00281 1.00478 1.00261 1.0019 0.99795 1.00686 1.00262 1.00281 1.00316 1.00261 1.00344 0.99795 0.994452 1.00262 0.999906 1.00478 1.00261 1.00378 1.01143 1.00686 1.00262 1.00963 1.01112 1.00261 1.00344 1.01143 1.01235 1.00262 0.999906 1.01112 1.0045 0.999115 0.99864 1.00374 1.00448 0.995017 0.998515 0.996651 1.00297 0.99864 1.0019 1.00448 1.00686 0.998515 0.99795 1.00297 1.00262 1.00374 1.00448 1.0066 1.00817 0.996651 1.00297 0.999828 1.00529 1.00448 1.00686 1.00817 1.00963 1.00297 1.00262 1.00529 1.01112 0.995017 0.998515 0.996651 1.00297 0.997533 0.993406 0.994655 0.99686 0.998515 0.99795 1.00297 1.00262 0.993406 0.994452 0.99686 0.999906 0.996651 1.00297 0.999828 1.00529 0.994655 0.99686 0.992598 0.998293 1.00297 1.00262 1.00529 1.01112 0.99686 0.999906 0.998293 1.0045 1.00233 1.00122 0.997116 0.993493 1.00444 1.00633 0.995292 0.999589 1.00122 1.00837 0.993493 1.00176 1.00633 1.0108 0.999589 1.00281 0.997116 0.993493 0.999115 0.99864 0.995292 0.999589 0.995017 0.998515 0.993493 1.00176 0.99864 1.0019 0.999589 1.00281 0.998515 0.99795 1.00444 1.00633 0.995292 0.999589 0.993796 1.01216 0.987414 0.991326 1.00633 1.0108 0.999589 1.00281 1.01216 1.00572 0.991326 1.00316 0.995292 0.999589 0.995017 0.998515 0.987414 0.991326 0.997533 0.993406 0.999589 1.00281 0.998515 0.99795 0.991326 1.00316 0.993406 0.994452 0.995176 1.00129 0.997489 1.00235 1.00328 1.00355 1.00462 1.00403 1.00129 0.996457 1.00235 1.00107 1.00355 1.00195 1.00403 1.0046 0.997489 1.00235 0.992664 1.00157 1.00462 1.00403 1.00107 1.00361 1.00235 1.00107 1.00157 1.00739 1.00403 1.0046 1.00361 1.00428 1.00328 1.00355 1.00462 1.00403 0.999297 0.999171 1.00249 1.00264 1.00355 1.00195 1.00403 1.0046 0.999171 1.00132 1.00264 1.00421 1.00462 1.00403 1.00107 1.00361 1.00249 1.00264 1.00193 1.00595 1.00403 1.0046 1.00361 1.00428 1.00264 1.00421 1.00595 1.01133 0.996457 0.997908 1.00107 1.00076 1.00195 1.00164 1.0046 1.00548 0.997908 0.998766 1.00076 1.00077 1.00164 1.00386 1.00548 1.00271 1.00107 1.00076 1.00739 1.00871 1.0046 1.00548 1.00428 1.014 1.00076 1.00077 1.00871 1.01404 1.00548 1.00271 1.014 1.00951 1.00195 1.00164 1.0046 1.00548 1.00132 1.0033 1.00421 1.00421 1.00164 1.00386 1.00548 1.00271 1.0033 1.00345 1.00421 1.00579 1.0046 1.00548 1.00428 1.014 1.00421 1.00421 1.01133 1.01229 1.00548 1.00271 1.014 1.00951 1.00421 1.00579 1.01229 1.00887 0.999297 0.999171 1.00249 1.00264 1.00303 1.00236 1.00298 1.00197 0.999171 1.00132 1.00264 1.00421 1.00236 1.0033 1.00197 1.00421 1.00249 1.00264 1.00193 1.00595 1.00298 1.00197 1.01206 1.00752 1.00264 1.00421 1.00595 1.01133 1.00197 1.00421 1.00752 1.01229 1.00303 1.00236 1.00298 1.00197 1.00264 1.0082 1.00605 1.00794 1.00236 1.0033 1.00197 1.00421 1.0082 1.00345 1.00794 1.00579 1.00298 1.00197 1.01206 1.00752 1.00605 1.00794 1.01373 1.01611 1.00197 1.00421 1.00752 1.01229 1.00794 1.00579 1.01611 1.00887 0.995176 1.00129 1.00328 1.00355 0.996822 0.99506 1.00367 1.00264 1.00129 0.996457 1.00355 1.00195 0.99506 0.997908 1.00264 1.00164 1.00328 1.00355 0.999297 0.999171 1.00367 1.00264 1.00303 1.00236 1.00355 1.00195 0.999171 1.00132 1.00264 1.00164 1.00236 1.0033 0.996822 0.99506 1.00367 1.00264 0.993796 1.00205 1.00351 1.0083 0.99506 0.997908 1.00264 1.00164 1.00205 0.998766 1.0083 1.00386 1.00367 1.00264 1.00303 1.00236 1.00351 1.0083 1.00264 1.0082 1.00264 1.00164 1.00236 1.0033 1.0083 1.00386 1.0082 1.00345 0.991945 0.998898 0.998839 1.00291 0.998485 0.996295 1.00689 1.00771 0.998898 1.00073 1.00291 1.0035 0.996295 0.991072 1.00771 0.998612 0.998839 1.00291 0.991395 1.00042 1.00689 1.00771 1.00346 1.00161 1.00291 1.0035 1.00042 1.00162 1.00771 0.998612 1.00161 0.996191 0.998485 0.996295 1.00689 1.00771 0.992672 0.99072 0.998799 0.99585 0.996295 0.991072 1.00771 0.998612 0.99072 0.992283 0.99585 0.997559 1.00689 1.00771 1.00346 1.00161 0.998799 0.99585 1.00218 1.00079 1.00771 0.998612 1.00161 0.996191 0.99585 0.997559 1.00079 1.00391 1.00376 1.01371 1.00855 1.00962 1.00121 1.00408 1.00191 1.0044 1.01371 1.01199 1.00962 1.01325 1.00408 1.01157 1.0044 1.0112 1.00855 1.00962 1.0131 1.01578 1.00191 1.0044 1.00794 1.01185 1.00962 1.01325 1.01578 1.01639 1.0044 1.0112 1.01185 1.01622 1.00121 1.00408 1.00191 1.0044 1.00073 0.991072 1.0035 0.998612 1.00408 1.01157 1.0044 1.0112 0.991072 0.992283 0.998612 0.997559 1.00191 1.0044 1.00794 1.01185 1.0035 0.998612 1.00162 0.996191 1.0044 1.0112 1.01185 1.01622 0.998612 0.997559 0.996191 1.00391 1.00572 1.00557 1.00651 1.00391 1.0123 1.00877 1.01096 1.00497 1.00557 0.992672 1.00391 0.998799 1.00877 0.99072 1.00497 0.99585 1.00651 1.00391 1.01671 1.0099 1.01096 1.00497 1.01394 1.01382 1.00391 0.998799 1.0099 1.00218 1.00497 0.99585 1.01382 1.00079 1.0123 1.00877 1.01096 1.00497 1.01199 1.01157 1.01325 1.0112 1.00877 0.99072 1.00497 0.99585 1.01157 0.992283 1.0112 0.997559 1.01096 1.00497 1.01394 1.01382 1.01325 1.0112 1.01639 1.01622 1.00497 0.99585 1.01382 1.00079 1.0112 0.997559 1.01622 1.00391 0.993796 1.00062 1.01216 1.00453 1.01077 0.999745 1.01738 1.00671 1.00062 0.991945 1.00453 0.998485 0.999745 0.998898 1.00671 0.996295 1.01216 1.00453 1.00572 1.00557 1.01738 1.00671 1.0123 1.00877 1.00453 0.998485 1.00557 0.992672 1.00671 0.996295 1.00877 0.99072 1.01077 0.999745 1.01738 1.00671 1.00376 1.00121 1.01371 1.00408 0.999745 0.998898 1.00671 0.996295 1.00121 1.00073 1.00408 0.991072 1.01738 1.00671 1.0123 1.00877 1.01371 1.00408 1.01199 1.01157 1.00671 0.996295 1.00877 0.99072 1.00408 0.991072 1.01157 0.992283 1.00221 0.996304 1.00599 1.00372 1.00268 1.00699 1.0038 1.00756 0.996304 0.99806 1.00372 1.00259 1.00699 1.0052 1.00756 1.0065 1.00599 1.00372 1.00818 1.00617 1.0038 1.00756 1.00326 1.00762 1.00372 1.00259 1.00617 1.00236 1.00756 1.0065 1.00762 1.01013 1.00268 1.00699 1.0038 1.00756 0.994904 1.00558 0.99534 1.00519 1.00699 1.0052 1.00756 1.0065 1.00558 1.00046 1.00519 1.00439 1.0038 1.00756 1.00326 1.00762 0.99534 1.00519 0.994167 1.00356 1.00756 1.0065 1.00762 1.01013 1.00519 1.00439 1.00356 1.00655 1.00221 1.00229 1.00599 1.00528 0.996304 0.996083 1.00372 1.00273 1.00229 1.00233 1.00528 1.00707 0.996083 0.998773 1.00273 1.00534 1.00599 1.00528 1.00818 1.01602 1.00372 1.00273 1.00617 1.00289 1.00528 1.00707 1.01602 1.01003 1.00273 1.00534 1.00289 1.00781 0.996304 0.996083 1.00372 1.00273 0.99806 0