# vtk DataFile Version 3.0
#This file was generated by the deal.II library on 2025/4/17 at 14:10:34
ASCII
DATASET UNSTRUCTURED_GRID

POINTS 8192 double
-0.353495 8.49761e-06 -0.353645
-0.461917 -0.00169955 -0.297924
-0.528766 -0.0100935 -0.528917
-0.639298 -0.00992565 -0.423518
-0.414309 -0.117332 -0.299631
-0.507826 -0.105797 -0.257958
-0.591262 -0.165848 -0.431656
-0.677103 -0.144534 -0.355804
-0.461917 -0.00169955 -0.297924
-0.568965 7.12578e-06 -0.23577
-0.639298 -0.00992565 -0.423518
-0.743792 -0.00569428 -0.311526
-0.507826 -0.105797 -0.257958
-0.600423 -0.0913891 -0.212121
-0.677103 -0.144534 -0.355804
-0.759307 -0.120678 -0.276547
-0.528766 -0.0100935 -0.528917
-0.639298 -0.00992565 -0.423518
-0.707051 6.87047e-06 -0.707195
-0.821529 -0.0028691 -0.548124
-0.591262 -0.165848 -0.431656
-0.677103 -0.144534 -0.355804
-0.773805 -0.202671 -0.563356
-0.851668 -0.174059 -0.451342
-0.639298 -0.00992565 -0.423518
-0.743792 -0.00569428 -0.311526
-0.821529 -0.0028691 -0.548124
-0.923809 6.23047e-06 -0.382745
-0.677103 -0.144534 -0.355804
-0.759307 -0.120678 -0.276547
-0.851668 -0.174059 -0.451342
-0.92277 -0.142846 -0.337124
-0.414309 -0.117332 -0.299631
-0.507826 -0.105797 -0.257958
-0.591262 -0.165848 -0.431656
-0.677103 -0.144534 -0.355804
-0.47134 -0.23568 -0.235772
-0.550649 -0.2112 -0.211292
-0.64513 -0.320094 -0.320186
-0.708744 -0.279117 -0.279209
-0.507826 -0.105797 -0.257958
-0.600423 -0.0913891 -0.212121
-0.677103 -0.144534 -0.355804
-0.759307 -0.120678 -0.276547
-0.550649 -0.2112 -0.211292
-0.629339 -0.184272 -0.184346
-0.708744 -0.279117 -0.279209
-0.770313 -0.236608 -0.236682
-0.591262 -0.165848 -0.431656
-0.677103 -0.144534 -0.355804
-0.773805 -0.202671 -0.563356
-0.851668 -0.174059 -0.451342
-0.64513 -0.320094 -0.320186
-0.708744 -0.279117 -0.279209
-0.824977 -0.399544 -0.399629
-0.871556 -0.342796 -0.342881
-0.677103 -0.144534 -0.355804
-0.759307 -0.120678 -0.276547
-0.851668 -0.174059 -0.451342
-0.92277 -0.142846 -0.337124
-0.708744 -0.279117 -0.279209
-0.770313 -0.236608 -0.236682
-0.871556 -0.342796 -0.342881
-0.914828 -0.285422 -0.28549
-0.568965 7.12578e-06 -0.23577
-0.536803 -0.00243579 -0.115895
-0.743792 -0.00569428 -0.311526
-0.749285 -0.0104482 -0.159008
-0.600423 -0.0913891 -0.212121
-0.570324 -0.105889 -0.105941
-0.759307 -0.120678 -0.276547
-0.757516 -0.142377 -0.142429
-0.536803 -0.00243579 -0.115895
-0.499919 8.66319e-06 -1.86348e-05
-0.749285 -0.0104482 -0.159008
-0.745603 -0.00993262 -0.00995992
-0.570324 -0.105889 -0.105941
-0.5368 -0.115842 -0.00246181
-0.757516 -0.142377 -0.142429
-0.749282 -0.158955 -0.0104742
-0.743792 -0.00569428 -0.311526
-0.749285 -0.0104482 -0.159008
-0.923809 6.23047e-06 -0.382745
-0.969318 -0.00332256 -0.190678
-0.759307 -0.120678 -0.276547
-0.757516 -0.142377 -0.142429
-0.92277 -0.142846 -0.337124
-0.951157 -0.169904 -0.16995
-0.749285 -0.0104482 -0.159008
-0.745603 -0.00993262 -0.00995992
-0.969318 -0.00332256 -0.190678
-0.999909 9.04036e-06 -1.60232e-05
-0.757516 -0.142377 -0.142429
-0.749282 -0.158955 -0.0104742
-0.951157 -0.169904 -0.16995
-0.96931 -0.190631 -0.00334581
-0.600423 -0.0913891 -0.212121
-0.570324 -0.105889 -0.105941
-0.759307 -0.120678 -0.276547
-0.757516 -0.142377 -0.142429
-0.629339 -0.184272 -0.184346
-0.600413 -0.212034 -0.0914336
-0.770313 -0.236608 -0.236682
-0.759298 -0.27646 -0.120722
-0.570324 -0.105889 -0.105941
-0.5368 -0.115842 -0.00246181
-0.757516 -0.142377 -0.142429
-0.749282 -0.158955 -0.0104742
-0.600413 -0.212034 -0.0914336
-0.568955 -0.235679 -1.55978e-05
-0.759298 -0.27646 -0.120722
-0.743782 -0.311435 -0.005717
-0.759307 -0.120678 -0.276547
-0.757516 -0.142377 -0.142429
-0.92277 -0.142846 -0.337124
-0.951157 -0.169904 -0.16995
-0.770313 -0.236608 -0.236682
-0.759298 -0.27646 -0.120722
-0.914828 -0.285422 -0.28549
-0.922758 -0.337041 -0.142885
-0.757516 -0.142377 -0.142429
-0.749282 -0.158955 -0.0104742
-0.951157 -0.169904 -0.16995
-0.96931 -0.190631 -0.00334581
-0.759298 -0.27646 -0.120722
-0.743782 -0.311435 -0.005717
-0.922758 -0.337041 -0.142885
-0.923791 -0.382658 -1.34221e-05
-0.47134 -0.23568 -0.235772
-0.550649 -0.2112 -0.211292
-0.64513 -0.320094 -0.320186
-0.708744 -0.279117 -0.279209
-0.4143 -0.299504 -0.117386
-0.507816 -0.257831 -0.10585
-0.591253 -0.431529 -0.165901
-0.677093 -0.355677 -0.144588
-0.550649 -0.2112 -0.211292
-0.629339 -0.184272 -0.184346
-0.708744 -0.279117 -0.279209
-0.770313 -0.236608 -0.236682
-0.507816 -0.257831 -0.10585
-0.600413 -0.212034 -0.0914336
-0.677093 -0.355677 -0.144588
-0.759298 -0.27646 -0.120722
-0.64513 -0.320094 -0.320186
-0.708744 -0.279117 -0.279209
-0.824977 -0.399544 -0.399629
-0.871556 -0.342796 -0.342881
-0.591253 -0.431529 -0.165901
-0.677093 -0.355677 -0.144588
-0.773788 -0.56323 -0.202717
-0.851651 -0.451216 -0.174105
-0.708744 -0.279117 -0.279209
-0.770313 -0.236608 -0.236682
-0.871556 -0.342796 -0.342881
-0.914828 -0.285422 -0.28549
-0.677093 -0.355677 -0.144588
-0.759298 -0.27646 -0.120722
-0.851651 -0.451216 -0.174105
-0.922758 -0.337041 -0.142885
-0.4143 -0.299504 -0.117386
-0.507816 -0.257831 -0.10585
-0.591253 -0.431529 -0.165901
-0.677093 -0.355677 -0.144588
-0.353487 -0.353508 -1.79155e-05
-0.461909 -0.297786 -0.00172596
-0.528759 -0.528779 -0.0101199
-0.639291 -0.42338 -0.00995206
-0.507816 -0.257831 -0.10585
-0.600413 -0.212034 -0.0914336
-0.677093 -0.355677 -0.144588
-0.759298 -0.27646 -0.120722
-0.461909 -0.297786 -0.00172596
-0.568955 -0.235679 -1.55978e-05
-0.639291 -0.42338 -0.00995206
-0.743782 -0.311435 -0.005717
-0.591253 -0.431529 -0.165901
-0.677093 -0.355677 -0.144588
-0.773788 -0.56323 -0.202717
-0.851651 -0.451216 -0.174105
-0.528759 -0.528779 -0.0101199
-0.639291 -0.42338 -0.00995206
-0.707033 -0.707055 -1.56638e-05
-0.821511 -0.547984 -0.00289163
-0.677093 -0.355677 -0.144588
-0.759298 -0.27646 -0.120722
-0.851651 -0.451216 -0.174105
-0.922758 -0.337041 -0.142885
-0.639291 -0.42338 -0.00995206
-0.743782 -0.311435 -0.005717
-0.821511 -0.547984 -0.00289163
-0.923791 -0.382658 -1.34221e-05
-0.353495 8.49761e-06 -0.353645
-0.461917 -0.00169955 -0.297924
-0.414309 -0.117332 -0.299631
-0.507826 -0.105797 -0.257958
-0.174082 -0.0144893 -0.174202
-0.353643 -0.0141615 -0.152458
-0.294358 -0.154863 -0.154943
-0.431953 -0.13413 -0.13421
-0.461917 -0.00169955 -0.297924
-0.568965 7.12578e-06 -0.23577
-0.507826 -0.105797 -0.257958
-0.600423 -0.0913891 -0.212121
-0.353643 -0.0141615 -0.152458
-0.536803 -0.00243579 -0.115895
-0.431953 -0.13413 -0.13421
-0.570324 -0.105889 -0.105941
-0.414309 -0.117332 -0.299631
-0.507826 -0.105797 -0.257958
-0.47134 -0.23568 -0.235772
-0.550649 -0.2112 -0.211292
-0.294358 -0.154863 -0.154943
-0.431953 -0.13413 -0.13421
-0.4143 -0.299504 -0.117386
-0.507816 -0.257831 -0.10585
-0.507826 -0.105797 -0.257958
-0.600423 -0.0913891 -0.212121
-0.550649 -0.2112 -0.211292
-0.629339 -0.184272 -0.184346
-0.431953 -0.13413 -0.13421
-0.570324 -0.105889 -0.105941
-0.507816 -0.257831 -0.10585
-0.600413 -0.212034 -0.0914336
-0.174082 -0.0144893 -0.174202
-0.353643 -0.0141615 -0.152458
-0.294358 -0.154863 -0.154943
-0.431953 -0.13413 -0.13421
4.00229e-05 1.31096e-05 -2.84328e-05
-0.243756 -0.0126144 -0.0126559
-0.174094 -0.174121 -0.0145284
-0.353655 -0.152376 -0.0142005
-0.353643 -0.0141615 -0.152458
-0.536803 -0.00243579 -0.115895
-0.431953 -0.13413 -0.13421
-0.570324 -0.105889 -0.105941
-0.243756 -0.0126144 -0.0126559
-0.499919 8.66319e-06 -1.86348e-05
-0.353655 -0.152376 -0.0142005
-0.5368 -0.115842 -0.00246181
-0.294358 -0.154863 -0.154943
-0.431953 -0.13413 -0.13421
-0.4143 -0.299504 -0.117386
-0.507816 -0.257831 -0.10585
-0.174094 -0.174121 -0.0145284
-0.353655 -0.152376 -0.0142005
-0.353487 -0.353508 -1.79155e-05
-0.461909 -0.297786 -0.00172596
-0.431953 -0.13413 -0.13421
-0.570324 -0.105889 -0.105941
-0.507816 -0.257831 -0.10585
-0.600413 -0.212034 -0.0914336
-0.353655 -0.152376 -0.0142005
-0.5368 -0.115842 -0.00246181
-0.461909 -0.297786 -0.00172596
-0.568955 -0.235679 -1.55978e-05
0.353509 -3.58758e-06 0.353639
0.411138 0.117657 0.285404
0.537374 -0.0281814 0.537504
0.596718 0.137255 0.402442
0.459949 -0.00425472 0.291174
0.503537 0.102395 0.243106
0.64161 -0.0301195 0.417877
0.678214 0.118475 0.329258
0.411138 0.117657 0.285404
0.471352 0.235685 0.235765
0.596718 0.137255 0.402442
0.660995 0.312248 0.3123
0.503537 0.102395 0.243106
0.548526 0.208461 0.208539
0.678214 0.118475 0.329258
0.717561 0.269694 0.269756
0.537374 -0.0281814 0.537504
0.596718 0.137255 0.402442
0.707067 -2.34923e-06 0.707189
0.757765 0.193315 0.519772
0.64161 -0.0301195 0.417877
0.678214 0.118475 0.329258
0.807831 -0.0161498 0.544576
0.831542 0.161699 0.42182
0.596718 0.137255 0.402442
0.660995 0.312248 0.3123
0.757765 0.193315 0.519772
0.81647 0.40823 0.408255
0.678214 0.118475 0.329258
0.717561 0.269694 0.269756
0.831542 0.161699 0.42182
0.859879 0.346719 0.346762
0.459949 -0.00425472 0.291174
0.503537 0.102395 0.243106
0.64161 -0.0301195 0.417877
0.678214 0.118475 0.329258
0.568978 -3.52016e-06 0.235764
0.59844 0.0930917 0.205936
0.753849 -0.013821 0.304246
0.766569 0.108336 0.258918
0.503537 0.102395 0.243106
0.548526 0.208461 0.208539
0.678214 0.118475 0.329258
0.717561 0.269694 0.269756
0.59844 0.0930917 0.205936
0.628498 0.185144 0.185203
0.766569 0.108336 0.258918
0.78081 0.229522 0.229579
0.64161 -0.0301195 0.417877
0.678214 0.118475 0.329258
0.807831 -0.0161498 0.544576
0.831542 0.161699 0.42182
0.753849 -0.013821 0.304246
0.766569 0.108336 0.258918
0.923822 -3.01112e-06 0.382738
0.917466 0.143667 0.322822
0.678214 0.118475 0.329258
0.717561 0.269694 0.269756
0.831542 0.161699 0.42182
0.859879 0.346719 0.346762
0.766569 0.108336 0.258918
0.78081 0.229522 0.229579
0.917466 0.143667 0.322822
0.913905 0.286922 0.28697
0.471352 0.235685 0.235765
0.411126 0.285288 0.117699
0.660995 0.312248 0.3123
0.596707 0.402344 0.137284
0.548526 0.208461 0.208539
0.503524 0.242992 0.102435
0.717561 0.269694 0.269756
0.678202 0.329154 0.118508
0.411126 0.285288 0.117699
0.353496 0.353513 8.8715e-06
0.596707 0.402344 0.137284
0.537362 0.537378 -0.028169
[...]
POINT_DATA 8192
SCALARS A_0 double 1
LOOKUP_TABLE default
1.00151 0.999734 1.00305 0.999511 0.99988 0.997689 0.999946 0.996196 0.999734 0.997612 0.999511 0.994554 0.997689 0.995221 0.996196 0.994667 1.00305 0.999511 1.00622 0.99955 0.999946 0.996196 0.999921 0.99561 0.999511 0.994554 0.99955 0.996294 0.996196 0.994667 0.99561 0.99279 0.99988 0.997689 0.999946 0.996196 0.997871 0.997073 0.996026 0.996606 0.997689 0.995221 0.996196 0.994667 0.997073 0.995991 0.996606 0.993811 0.999946 0.996196 0.999921 0.99561 0.996026 0.996606 0.995485 0.992756 0.996196 0.994667 0.99561 0.99279 0.996606 0.993811 0.992756 0.99216 0.997612 0.996568 0.994554 0.993877 0.995221 0.995243 0.994667 0.993726 0.996568 0.996739 0.993877 0.992334 0.995243 0.994853 0.993726 0.992807 0.994554 0.993877 0.996294 0.991576 0.994667 0.993726 0.99279 0.988243 0.993877 0.992334 0.991576 0.988833 0.993726 0.992807 0.988243 0.989678 0.995221 0.995243 0.994667 0.993726 0.995991 0.99614 0.993811 0.993027 0.995243 0.994853 0.993726 0.992807 0.99614 0.994108 0.993027 0.992172 0.994667 0.993726 0.99279 0.988243 0.993811 0.993027 0.99216 0.990677 0.993726 0.992807 0.988243 0.989678 0.993027 0.992172 0.990677 0.988579 0.997871 0.997073 0.996026 0.996606 0.99683 0.995714 0.994659 0.99353 0.997073 0.995991 0.996606 0.993811 0.995714 0.99614 0.99353 0.993027 0.996026 0.996606 0.995485 0.992756 0.994659 0.99353 0.986409 0.990776 0.996606 0.993811 0.992756 0.99216 0.99353 0.993027 0.990776 0.990677 0.99683 0.995714 0.994659 0.99353 0.996138 0.997023 0.994934 0.99141 0.995714 0.99614 0.99353 0.993027 0.997023 0.994108 0.99141 0.992172 0.994659 0.99353 0.986409 0.990776 0.994934 0.99141 0.990364 0.991095 0.99353 0.993027 0.990776 0.990677 0.99141 0.992172 0.991095 0.988579 1.00151 0.999734 0.99988 0.997689 1.0004 0.998952 0.999013 0.997099 0.999734 0.997612 0.997689 0.995221 0.998952 0.996568 0.997099 0.995243 0.99988 0.997689 0.997871 0.997073 0.999013 0.997099 0.99683 0.995714 0.997689 0.995221 0.997073 0.995991 0.997099 0.995243 0.995714 0.99614 1.0004 0.998952 0.999013 0.997099 0.999852 0.999333 0.998694 0.99723 0.998952 0.996568 0.997099 0.995243 0.999333 0.996739 0.99723 0.994853 0.999013 0.997099 0.99683 0.995714 0.998694 0.99723 0.996138 0.997023 0.997099 0.995243 0.995714 0.99614 0.99723 0.994853 0.997023 0.994108 1.00183 0.999749 1.00332 0.999641 0.999519 0.997952 0.999349 0.996963 0.999749 0.99769 0.999641 0.996782 0.997952 0.997725 0.996963 0.995614 1.00332 0.999641 1.00533 0.999451 0.999349 0.996963 0.99939 0.995757 0.999641 0.996782 0.999451 0.995593 0.996963 0.995614 0.995757 0.994421 0.999519 0.997952 0.999349 0.996963 0.99653 0.995651 0.995481 0.993525 0.997952 0.997725 0.996963 0.995614 0.995651 0.996813 0.993525 0.994228 0.999349 0.996963 0.99939 0.995757 0.995481 0.993525 0.993392 0.99502 0.996963 0.995614 0.995757 0.994421 0.993525 0.994228 0.99502 0.987932 0.99769 0.997464 0.996782 0.992345 0.997725 0.996435 0.995614 0.992595 0.997464 0.997826 0.992345 0.993784 0.996435 0.994552 0.992595 0.993086 0.996782 0.992345 0.995593 0.99143 0.995614 0.992595 0.994421 0.992925 0.992345 0.993784 0.99143 0.99313 0.992595 0.993086 0.992925 0.986145 0.997725 0.996435 0.995614 0.992595 0.996813 0.99598 0.994228 0.992221 0.996435 0.994552 0.992595 0.993086 0.99598 0.996805 0.992221 0.993105 0.995614 0.992595 0.994421 0.992925 0.994228 0.992221 0.987932 0.99097 0.992595 0.993086 0.992925 0.986145 0.992221 0.993105 0.99097 0.994366 0.99653 0.995651 0.995481 0.993525 0.99661 0.995431 0.994812 0.99417 0.995651 0.996813 0.993525 0.994228 0.995431 0.99598 0.99417 0.992221 0.995481 0.993525 0.993392 0.99502 0.994812 0.99417 0.994366 0.993049 0.993525 0.994228 0.99502 0.987932 0.99417 0.992221 0.993049 0.99097 0.99661 0.995431 0.994812 0.99417 0.997303 0.996559 0.992938 0.99318 0.995431 0.99598 0.99417 0.992221 0.996559 0.996805 0.99318 0.993105 0.994812 0.99417 0.994366 0.993049 0.992938 0.99318 0.989667 0.989613 0.99417 0.992221 0.993049 0.99097 0.99318 0.993105 0.989613 0.994366 1.00183 0.999749 0.999519 0.997952 1.00033 0.998882 0.999093 0.998132 0.999749 0.99769 0.997952 0.997725 0.998882 0.997464 0.998132 0.996435 0.999519 0.997952 0.99653 0.995651 0.999093 0.998132 0.99661 0.995431 0.997952 0.997725 0.995651 0.996813 0.998132 0.996435 0.995431 0.99598 1.00033 0.998882 0.999093 0.998132 0.999852 0.99954 0.999247 0.997319 0.998882 0.997464 0.998132 0.996435 0.99954 0.997826 0.997319 0.994552 0.999093 0.998132 0.99661 0.995431 0.999247 0.997319 0.997303 0.996559 0.998132 0.996435 0.995431 0.99598 0.997319 0.994552 0.996559 0.996805 1.0064 1.00851 1.00889 1.01363 1.00717 1.00897 1.01521 1.01422 1.00851 1.00488 1.01363 1.01214 1.00897 1.00531 1.01422 1.01004 1.00889 1.01363 1.01279 1.0172 1.01521 1.01422 1.01218 1.01209 1.01363 1.01214 1.0172 1.01057 1.01422 1.01004 1.01209 1.0133 1.00717 1.00897 1.01521 1.01422 1.00577 1.00686 1.01455 1.01478 1.00897 1.00531 1.01422 1.01004 1.00686 1.00563 1.01478 1.00617 1.01521 1.01422 1.01218 1.01209 1.01455 1.01478 1.00766 1.01652 1.01422 1.01004 1.01209 1.0133 1.01478 1.00617 1.01652 1.01025 1.00488 1.00396 1.01214 1.00783 1.00531 1.00586 1.01004 1.0093 1.00396 1.00191 1.00783 1.00261 1.00586 1.00328 1.0093 1.00852 1.01214 1.00783 1.01057 1.01007 1.01004 1.0093 1.0133 1.01457 1.00783 1.00261 1.01007 1.00659 1.0093 1.00852 1.01457 1.00626 1.00531 1.00586 1.01004 1.0093 1.00563 1.00773 1.00617 1.00644 1.00586 1.00328 1.0093 1.00852 1.00773 1.00386 1.00644 1.00859 1.01004 1.0093 1.0133 1.01457 1.00617 1.00644 1.01025 1.00967 1.0093 1.00852 1.01457 1.00626 1.00644 1.00859 1.00967 1.00755 1.00577 1.00686 1.01455 1.01478 1.00538 1.00464 1.00776 1.01118 1.00686 1.00563 1.01478 1.00617 1.00464 1.00773 1.01118 1.00644 1.01455 1.01478 1.00766 1.01652 1.00776 1.01118 1.01215 1.0132 1.01478 1.00617 1.01652 1.01025 1.01118 1.00644 1.0132 1.00967 1.00538 1.00464 1.00776 1.01118 1.00151 1.00348 1.00368 1.00403 1.00464 1.00773 1.01118 1.00644 1.00348 1.00386 1.00403 1.00859 1.00776 1.01118 1.01215 1.0132 1.00368 1.00403 1.0063 1.00711 1.01118 1.00644 1.0132 1.00967 1.00403 1.00859 1.00711 1.00755 1.0064 1.00851 1.00717 1.00897 1.00154 1.00185 1.00343 1.00445 1.00851 1.00488 1.00897 1.00531 1.00185 1.00396 1.00445 1.00586 1.00717 1.00897 1.00577 1.00686 1.00343 1.00445 1.00538 1.00464 1.00897 1.00531 1.00686 1.00563 1.00445 1.00586 1.00464 1.00773 1.00154 1.00185 1.00343 1.00445 0.999852 0.999772 1.00019 1.00173 1.00185 1.00396 1.00445 1.00586 0.999772 1.00191 1.00173 1.00328 1.00343 1.00445 1.00538 1.00464 1.00019 1.00173 1.00151 1.00348 1.00445 1.00586 1.00464 1.00773 1.00173 1.00328 1.00348 1.00386 1.00839 1.00754 1.01367 1.01344 1.00793 1.00927 1.01004 1.00658 1.00754 1.008 1.01344 1.00957 1.00927 1.01292 1.00658 1.01607 1.01367 1.01344 1.02262 1.0189 1.01004 1.00658 1.02361 1.02278 1.01344 1.00957 1.0189 1.00989 1.00658 1.01607 1.02278 1.0116 1.00793 1.00927 1.01004 1.00658 1.00699 1.00741 1.0096 1.01126 1.00927 1.01292 1.00658 1.01607 1.00741 1.00635 1.01126 1.01601 1.01004 1.00658 1.02361 1.02278 1.0096 1.01126 1.01619 1.01736 1.00658 1.01607 1.02278 1.0116 1.01126 1.01601 1.01736 1.01902 1.008 1.00508 1.00957 1.00832 1.01292 1.00627 1.01607 1.0054 1.00508 1.00166 1.00832 1.00394 1.00627 1.003 1.0054 1.0081 1.00957 1.00832 1.00989 1.017 1.01607 1.0054 1.0116 1.01415 1.00832 1.00394 1.017 1.00408 1.0054 1.0081 1.01415 1.00712 1.01292 1.00627 1.01607 1.0054 1.00635 1.00597 1.01601 1.00985 1.00627 1.003 1.0054 1.0081 1.00597 1.00373 1.00985 1.0072 1.01607 1.0054 1.0116 1.01415 1.01601 1.00985 1.01902 1.01813 1.0054 1.0081 1.01415 1.00712 1.00985 1.0072 1.01813 1.01541 1.00699 1.00741 1.0096 1.01126 1.00462 1.0054 1.00971 1.00696 1.00741 1.00635 1.01126 1.01601 1.0054 1.00597 1.00696 1.00985 1.0096 1.01126 1.01619 1.01736 1.00971 1.00696 1.00231 1.01836 1.01126 1.01601 1.01736 1.01902 1.00696 1.00985 1.01836 1.01813 1.00462 1.0054 1.00971 1.00696 1.00138 1.00218 1.00335 1.00587 1.0054 1.00597 1.00696 1.00985 1.00218 1.00373 1.00587 1.0072 1.00971 1.00696 1.00231 1.01836 1.00335 1.00587 1.00508 1.00416 1.00696 1.00985 1.01836 1.01813 1.00587 1.0072 1.00416 1.01541 1.00839 1.00754 1.00793 1.00927 1.00096 1.00235 1.00246 1.00326 1.00754 1.008 1.00927 1.01292 1.00235 1.00508 1.00326 1.00627 1.00793 1.00927 1.00699 1.00741 1.00246 1.00326 1.00462 1.0054 1.00927 1.01292 1.00741 1.00635 1.00326 1.00627 1.0054 1.00597 1.00096 1.00235 1.00246 1.00326 0.999852 1.00003 1.00044 1.00172 1.00235 1.00508 1.00326 1.00627 1.00003 1.00166 1.00172 1.003 1.00246 1.00326 1.00462 1.0054 1.00044 1.00172 1.00138 1.00218 1.00326 1.00627 1.0054 1.00597 1.00172 1.003 1.00218 1.00373 1.00189 0.999815 1.00267 0.999558 0.999525 0.997476 0.998999 0.995953 0.999815 0.998806 0.999558 0.996402 0.997476 0.997006 0.995953 0.99599 1.00267 0.999558 1.00553 0.999695 0.998999 0.995953 0.999289 0.997986 0.999558 0.996402 0.999695 0.995383 0.995953 0.99599 0.997986 0.998048 0.999525 0.997476 0.998999 0.995953 0.997908 0.996922 0.99653 0.993732 0.997476 0.997006 0.995953 0.99599 0.996922 0.995796 0.993732 0.992194 0.998999 0.995953 0.999289 0.997986 0.99653 0.993732 0.993806 0.990569 0.995953 0.99599 0.997986 0.998048 0.993732 0.992194 0.990569 0.98912 0.998806 0.99599 0.996402 0.993976 0.997006 0.996539 0.99599 0.993955 0.99599 0.996083 0.993976 0.990572 0.996539 0.996992 0.993955 0.993284 0.996402 0.993976 0.995383 0.991073 0.99599 0.993955 0.998048 0.996526 0.993976 0.990572 0.991073 0.989819 0.993955 0.993284 0.996526 0.99179 0.997006 0.996539 0.99599 0.993955 0.995796 0.994986 0.992194 0.991268 0.996539 0.996992 0.993955 0.993284 0.994986 0.996464 0.991268 0.990346 0.99599 0.993955 0.998048 0.996526 0.992194 0.991268 0.98912 0.985731 0.993955 0.993284 0.996526 0.99179 0.991268 0.990346 0.985731 0.993143 0.997908 0.996922 0.99653 0.993732 0.995944 0.994874 0.994001 0.991444 0.996922 0.995796 0.993732 0.992194 0.994874 0.994986 0.991444 0.991268 0.99653 0.993732 0.993806 0.990569 0.994001 0.991444 0.989343 0.9893 0.993732 0.992194 0.990569 0.98912 0.991444 0.991268 0.9893 0.985731 0.995944 0.994874 0.994001 0.991444 0.995697 0.995262 0.993703 0.993247 0.994874 0.994986 0.991444 0.991268 0.995262 0.996464 0.993247 0.990346 0.994001 0.991444 0.989343 0.9893 0.993703 0.993247 0.991525 0.987136 0.991444 0.991268 0.9893 0.985731 0.993247 0.990346 0.987136 0.993143 1.00189 0.999815 0.999525 0.997476 1.00007 0.999106 0.998723 0.997379 0.999815 0.998806 0.997476 0.997006 0.999106 0.99599 0.997379 0.996539 0.999525 0.997476 0.997908 0.996922 0.998723 0.997379 0.995944 0.994874 0.997476 0.997006 0.996922 0.995796 0.997379 0.996539 0.994874 0.994986 1.00007 0.999106 0.998723 0.997379 0.999852 0.998815 0.999378 0.998124 0.999106 0.99599 0.997379 0.996539 0.998815 0.996083 0.998124 0.996992 0.998723 0.997379 0.995944 0.994874 0.999378 0.998124 0.995697 0.995262 0.997379 0.996539 0.994874 0.994986 0.998124 0.996992 0.995262 0.996464 0.99729 0.997469 0.993937 0.994596 0.996189 0.995505 0.993266 0.994473 0.997469 0.998207 0.994596 0.994211 0.995505 0.996814 0.994473 0.995149 0.993937 0.994596 0.987261 0.994908 0.993266 0.994473 0.989566 0.991534 0.994596 0.994211 0.994908 0.995505 0.994473 0.995149 0.991534 0.996899 0.996189 0.995505 0.993266 0.994473 0.996923 0.995309 0.992065 0.995121 0.995505 0.996814 0.994473 0.995149 0.995309 0.996634 0.995121 0.994378 0.993266 0.994473 0.989566 0.991534 0.992065 0.995121 0.985463 0.99378 0.994473 0.995149 0.991534 0.996899 0.995121 0.994378 0.99378 0.994447 0.998207 0.999851 0.994211 1.00058 0.996814 0.997704 0.995149 0.997716 0.999851 1.00161 1.00058 1.00364 0.997704 0.9994 0.997716 0.999901 0.994211 1.00058 0.995505 1.00034 0.995149 0.997716 0.996899 0.996131 1.00058 1.00364 1.00034 1.00576 0.997716 0.999901 0.996131 0.999563 0.996814 0.997704 0.995149 0.997716 0.996634 0.996571 0.994378 0.994536 0.997704 0.9994 0.997716 0.999901 0.996571 0.996731 0.994536 0.996538 0.995149 0.997716 0.996899 0.996131 0.994378 0.994536 0.994447 0.990524 0.997716 0.999901 0.996131 0.999563 0.994536 0.996538 0.990524 0.994192 0.996923 0.995309 0.992065 0.995121 0.996287 0.995809 0.991342 0.992 0.995309 0.996634 0.995121 0.994378 0.995809 0.996571 0.992 0.994536 0.992065 0.995121 0.985463 0.99378 0.991342 0.992 0.990864 0.99044 0.995121 0.994378 0.99378 0.994447 0.992 0.994536 0.99044 0.990524 0.996287 0.995809 0.991342 0.992 0.996418 0.996583 0.99477 0.993055 0.995809 0.996571 0.992 0.994536 0.996583 0.996731 0.993055 0.996538 0.991342 0.992 0.990864 0.99044 0.99477 0.993055 0.989534 0.989417 0.992 0.994536 0.99044 0.990524 0.993055 0.996538 0.989417 0.994192 0.99729 0.997469 0.996189 0.995505 0.999289 0.999303 0.998546 0.997537 0.997469 0.998207 0.995505 0.996814 0.999303 0.999851 0.997537 0.997704 0.996189 0.995505 0.996923 0.995309 0.998546 0.997537 0.996287 0.995809 0.995505 0.996814 0.995309 0.996634 0.997537 0.997704 0.995809 0.996571 0.999289 0.999303 0.998546 0.997537 0.999852 1.00058 0.999482 0.999011 0.999303 0.999851 0.997537 0.997704 1.00058 1.00161 0.999011 0.9994 0.998546 0.997537 0.996287 0.995809 0.999482 0.999011 0.996418 0.996583 0.997537 0.997704 0.995809 0.996571 0.999011 0.9994 0.996583 0.996731 0.99729 0.996189 0.993937 0.993266 0.996248 0.995695 0.994683 0.9901 0.996189 0.996923 0.993266 0.992065 0.995695 0.996769 0.9901 0.993391 0.993937 0.993266 0.987261 0.989566 0.994683 0.9901 0.995309 0.994579 0.993266 0.992065 0.989566 0.985463 0.9901 0.993391 0.994579 0.990574 0.996248 0.995695 0.994683 0.9901 0.997503 0.996641 0.996404 0.99498 0.995695 0.996769 0.9901 0.993391 0.996641 0.997157 0.99498 0.991576 0.994683 0.9901 0.995309 0.994579 0.996404 0.99498 0.993336 0.99267 0.9901 0.993391 0.994579 0.990574 0.99498 0.991576 0.99267 0.991202 0.996923 0.996287 0.992065 0.991342 0.996769 0.994535 0.993391 0.997194 0.996287 0.996418 0.991342 0.99477 0.994535 0.997377 0.997194 0.994479 0.992065 0.991342 0.985463 0.990864 0.993391 0.997194 0.990574 0.993295 0.991342 0.99477 0.990864 0.989534 0.997194 0.994479 0.993295 0.992119 0.996769 0.994535 0.993391 0.997194 0.997157 0.997001 0.991576 0.993262 0.994535 0.997377 0.997194 0.994479 0.997001 0.996431 0.993262 0.996364 0.993391 0.997194 0.990574 0.993295 0.991576 0.993262 0.991202 0.991816 0.997194 0.994479 0.993295 0.992119 0.993262 0.996364 0.991816 0.989934 0.997503 0.996641 0.996404 0.99498 0.999795 0.998084 1.00002 0.996585 0.996641 0.997157 0.99498 0.991576 0.998084 0.997001 0.996585 0.993262 0.996404 0.99498 0.993336 0.99267 1.00002 0.996585 1.00062 0.994518 0.99498 0.991576 0.99267 0.991202 0.996585 0.993262 0.994518 0.991816 0.999795 0.998084 1.00002 0.996585 1.00151 0.999154 1.00368 0.999 0.998084 0.997001 0.996585 0.993262 0.999154 0.996431 0.999 0.996364 1.00002 0.996585 1.00062 0.994518 1.00368 0.999 1.0063 0.999153 0.996585 0.993262 0.994518 0.991816 0.999 0.996364 0.999153 0.989934 0.99729 0.996189 0.996248 0.995695 0.999289 0.998546 0.99908 0.997954 0.996189 0.996923 0.995695 0.996769 0.998546 0.996287 0.997954 0.994535 0.996248 0.995695 0.997503 0.996641 0.99908 0.997954 0.999795 0.998084 0.995695 0.996769 0.996641 0.997157 0.997954 0.994535 0.998084 0.997001 0.999289 0.998546 0.99908 0.997954 0.999852 0.999482 1.00019 0.998389 0.998546 0.996287 0.997954 0.994535 0.999482 0.996418 0.998389 0.997377 0.99908 0.997954 0.999795 0.998084 1.00019 0.998389 1.00151 0.999154 0.997954 0.994535 0.998084 0.997001 0.998389 0.997377 0.999154 0.996431 1.00183 0.999519 1.00332 0.999349 1.00004 0.998129 1.00016 0.996739 0.999519 0.99653 0.999349 0.995481 0.998129 0.99693 0.996739 0.995179 1.00332 0.999349 1.00533 0.99939 1.00016 0.996739 1.00059 0.997501 0.999349 0.995481 0.99939 0.993392 0.996739 0.995179 0.997501 0.998295 1.00004 0.998129 1.00016 0.996739 0.998235 0.997682 0.995212 0.995607 0.998129 0.99693 0.996739 0.995179 0.997682 0.994712 0.995607 0.993059 1.00016 0.996739 1.00059 0.997501 0.995212 0.995607 0.991057 0.994605 0.996739 0.995179 0.997501 0.998295 0.995607 0.993059 0.994605 0.992741 0.99653 0.99661 0.995481 0.994812 0.99693 0.997597 0.995179 0.992881 0.99661 0.997303 0.994812 0.992938 0.997597 0.996381 0.992881 0.994233 0.995481 0.994812 0.993392 0.994366 0.995179 0.992881 0.998295 0.98703 0.994812 0.992938 0.994366 0.989667 0.992881 0.994233 0.98703 0.992703 0.99693 0.997597 0.995179 0.992881 0.994712 0.995523 0.993059 0.990591 0.997597 0.996381 0.992881 0.994233 0.995523 0.99632 0.990591 0.993673 0.995179 0.992881 0.998295 0.98703 0.993059 0.990591 0.992741 0.993145 0.992881 0.994233 0.98703 0.992703 0.990591 0.993673 0.993145 0.98557 0.998235 0.997682 0.995212 0.995607 0.996989 0.994828 0.994145 0.992018 0.997682 0.994712 0.995607 0.993059 0.994828 0.995523 0.992018 0.990591 0.995212 0.995607 0.991057 0.994605 0.994145 0.992018 0.99621 0.991583 0.995607 0.993059 0.994605 0.992741 0.992018 0.990591 0.991583 0.993145 0.996989 0.994828 0.994145 0.992018 0.996083 0.995498 0.990572 0.994081 0.994828 0.995523 0.992018 0.990591 0.995498 0.99632 0.994081 0.993673 0.994145 0.992018 0.99621 0.991583 0.990572 0.994081 0.989819 0.990197 0.992018 0.990591 0.991583 0.993145 0.994081 0.993673 0.990197 0.98557 1.00183 0.999519 1.00004 0.998129 1.00033 0.999093 0.999398 0.997956 0.999519 0.99653 0.998129 0.99693 0.999093 0.99661 0.997956 0.997597 1.00004 0.998129 0.998235 0.997682 0.999398 0.997956 0.996989 0.994828 0.998129 0.99693 0.997682 0.994712 0.997956 0.997597 0.994828 0.995523 1.00033 0.999093 0.999398 0.997956 0.999852 0.999247 0.998815 0.997995 0.999093 0.99661 0.997956 0.997597 0.999247 0.997303 0.997995 0.996381 0.999398 0.997956 0.996989 0.994828 0.998815 0.997995 0.996083 0.995498 0.997956 0.997597 0.994828 0.995523 0.997995 0.996381 0.995498 0.99632 1.00161 0.999868 1.00364 1.00055 0.9994 0.998274 0.999901 0.99784 0.999868 0.997877 1.00055 0.9969 0.998274 0.995915 0.99784 0.995482 1.00364 1.00055 1.00576 1.00031 0.999901 0.99784 0.999563 0.997043 1.00055 0.9969 1.00031 0.995349 0.99784 0.995482 0.997043 0.992535 0.9994 0.998274 0.999901 0.99784 0.996731 0.996279 0.996538 0.995282 0.998274 0.995915 0.99784 0.995482 0.996279 0.995764 0.995282 0.995315 0.999901 0.99784 0.999563 0.997043 0.996538 0.995282 0.994192 0.991952 0.99784 0.995482 0.997043 0.992535 0.995282 0.995315 0.991952 0.994937 0.997826 0.99764 0.993784 0.991999 0.996863 0.995912 0.995682 0.994583 0.99764 0.993537 0.991999 0.992309 0.995912 0.997134 0.994583 0.994631 0.993784 0.991999 0.99313 0.989557 0.995682 0.994583 0.992249 0.996489 0.991999 0.992309 0.989557 0.986842 0.994583 0.994631 0.996489 0.995182 0.996863 0.995912 0.995682 0.994583 0.997877 0.995915 0.9969 0.995482 0.995912 0.997134 0.994583 0.994631 0.995915 0.995764 0.995482 0.995315 0.995682 0.994583 0.992249 0.996489 0.9969 0.995482 0.995349 0.992535 0.994583 0.994631 0.996489 0.995182 0.995482 0.995315 0.992535 0.994937 0.996418 0.996583 0.99477 0.993055 0.996509 0.995766 0.991329 0.994808 0.996583 0.996731 0.993055 0.996538 0.995766 0.996279 0.994808 0.995282 0.99477 0.993055 0.989534 0.989417 0.991329 0.994808 0.990769 0.990545 0.993055 0.996538 0.989417 0.994192 0.994808 0.995282 0.990545 0.991952 0.996509 0.995766 0.991329 0.994808 0.993537 0.997134 0.992309 0.994631 0.995766 0.996279 0.994808 0.995282 0.997134 0.995764 0.994631 0.995315 0.991329 0.994808 0.990769 0.990545 0.992309 0.994631 0.986842 0.995182 0.994808 0.995282 0.990545 0.991952 0.994631 0.995315 0.995182 0.994937 0.999852 1.00058 0.999482 0.999011 0.99954 0.999422 0.998202 0.998461 1.00058 1.00161 0.999011 0.9994 0.999422 0.999868 0.998461 0.998274 0.999482 0.999011 0.996418 0.996583 0.998202 0.998461 0.996509 0.995766 0.999011 0.9994 0.996583 0.996731 0.998461 0.998274 0.995766 0.996279 0.99954 0.999422 0.998202 0.998461 0.997826 0.996863 0.99764 0.995912 0.999422 0.999868 0.998461 0.998274 0.996863 0.997877 0.995912 0.995915 0.998202 0.998461 0.996509 0.995766 0.99764 0.995912 0.993537 0.997134 0.998461 0.998274 0.995766 0.996279 0.995912 0.995915 0.997134 0.995764 0.996804 0.99665 0.997212 0.993687 0.999879 0.998626 0.999991 0.997097 0.99665 0.994754 0.993687 0.992063 0.998626 0.996247 0.997097 