# vtk DataFile Version 3.0
#This file was generated by the deal.II library on 2025/4/17 at 14:11:11
ASCII
DATASET UNSTRUCTURED_GRID

POINTS 8192 double
-0.353378 2.58637e-05 -0.353829
-0.4618 -0.00168218 -0.298107
-0.52865 -0.0100761 -0.5291
-0.639182 -0.00990828 -0.423701
-0.414192 -0.117315 -0.299815
-0.507709 -0.105779 -0.258142
-0.591145 -0.16583 -0.43184
-0.676986 -0.144517 -0.355988
-0.4618 -0.00168218 -0.298107
-0.568826 2.17656e-05 -0.235907
-0.639182 -0.00990828 -0.423701
-0.743652 -0.00567964 -0.311662
-0.507709 -0.105779 -0.258142
-0.600283 -0.0913744 -0.212258
-0.676986 -0.144517 -0.355988
-0.759167 -0.120663 -0.276684
-0.52865 -0.0100761 -0.5291
-0.639182 -0.00990828 -0.423701
-0.706939 2.10324e-05 -0.707372
-0.821417 -0.00285494 -0.548301
-0.591145 -0.16583 -0.43184
-0.676986 -0.144517 -0.355988
-0.773693 -0.202657 -0.563533
-0.851556 -0.174045 -0.451519
-0.639182 -0.00990828 -0.423701
-0.743652 -0.00567964 -0.311662
-0.821417 -0.00285494 -0.548301
-0.923667 1.91012e-05 -0.382869
-0.676986 -0.144517 -0.355988
-0.759167 -0.120663 -0.276684
-0.851556 -0.174045 -0.451519
-0.922629 -0.142834 -0.337248
-0.414192 -0.117315 -0.299815
-0.507709 -0.105779 -0.258142
-0.591145 -0.16583 -0.43184
-0.676986 -0.144517 -0.355988
-0.47121 -0.235635 -0.235912
-0.550519 -0.211155 -0.211432
-0.645001 -0.320049 -0.320325
-0.708615 -0.279072 -0.279348
-0.507709 -0.105779 -0.258142
-0.600283 -0.0913744 -0.212258
-0.676986 -0.144517 -0.355988
-0.759167 -0.120663 -0.276684
-0.550519 -0.211155 -0.211432
-0.629192 -0.184233 -0.184456
-0.708615 -0.279072 -0.279348
-0.770167 -0.23657 -0.236793
-0.591145 -0.16583 -0.43184
-0.676986 -0.144517 -0.355988
-0.773693 -0.202657 -0.563533
-0.851556 -0.174045 -0.451519
-0.645001 -0.320049 -0.320325
-0.708615 -0.279072 -0.279348
-0.824846 -0.3995 -0.399758
-0.871425 -0.342752 -0.343009
-0.676986 -0.144517 -0.355988
-0.759167 -0.120663 -0.276684
-0.851556 -0.174045 -0.451519
-0.922629 -0.142834 -0.337248
-0.708615 -0.279072 -0.279348
-0.770167 -0.23657 -0.236793
-0.871425 -0.342752 -0.343009
-0.914677 -0.285383 -0.285588
-0.568826 2.17656e-05 -0.235907
-0.536647 -0.00242068 -0.115985
-0.743652 -0.00567964 -0.311662
-0.749128 -0.0104331 -0.159098
-0.600283 -0.0913744 -0.212258
-0.570168 -0.105874 -0.10603
-0.759167 -0.120663 -0.276684
-0.75736 -0.142362 -0.142518
-0.536647 -0.00242068 -0.115985
-0.499757 2.6264e-05 -5.59932e-05
-0.749128 -0.0104331 -0.159098
-0.745441 -0.00991502 -0.00999728
-0.570168 -0.105874 -0.10603
-0.536638 -0.115825 -0.00249917
-0.75736 -0.142362 -0.142518
-0.74912 -0.158938 -0.0105116
-0.743652 -0.00567964 -0.311662
-0.749128 -0.0104331 -0.159098
-0.923667 1.91012e-05 -0.382869
-0.969151 -0.00330772 -0.190756
-0.759167 -0.120663 -0.276684
-0.75736 -0.142362 -0.142518
-0.922629 -0.142834 -0.337248
-0.95099 -0.169889 -0.170027
-0.749128 -0.0104331 -0.159098
-0.745441 -0.00991502 -0.00999728
-0.969151 -0.00330772 -0.190756
-0.999727 2.74548e-05 -4.82227e-05
-0.75736 -0.142362 -0.142518
-0.74912 -0.158938 -0.0105116
-0.95099 -0.169889 -0.170027
-0.969129 -0.190612 -0.00337801
-0.600283 -0.0913744 -0.212258
-0.570168 -0.105874 -0.10603
-0.759167 -0.120663 -0.276684
-0.75736 -0.142362 -0.142518
-0.629192 -0.184233 -0.184456
-0.600255 -0.211994 -0.0915084
-0.770167 -0.23657 -0.236793
-0.75914 -0.27642 -0.120797
-0.570168 -0.105874 -0.10603
-0.536638 -0.115825 -0.00249917
-0.75736 -0.142362 -0.142518
-0.74912 -0.158938 -0.0105116
-0.600255 -0.211994 -0.0915084
-0.568793 -0.235633 -4.68126e-05
-0.75914 -0.27642 -0.120797
-0.74362 -0.311389 -0.00574822
-0.759167 -0.120663 -0.276684
-0.75736 -0.142362 -0.142518
-0.922629 -0.142834 -0.337248
-0.95099 -0.169889 -0.170027
-0.770167 -0.23657 -0.236793
-0.75914 -0.27642 -0.120797
-0.914677 -0.285383 -0.285588
-0.92259 -0.336999 -0.14295
-0.75736 -0.142362 -0.142518
-0.74912 -0.158938 -0.0105116
-0.95099 -0.169889 -0.170027
-0.969129 -0.190612 -0.00337801
-0.75914 -0.27642 -0.120797
-0.74362 -0.311389 -0.00574822
-0.92259 -0.336999 -0.14295
-0.923614 -0.382608 -4.03399e-05
-0.47121 -0.235635 -0.235912
-0.550519 -0.211155 -0.211432
-0.645001 -0.320049 -0.320325
-0.708615 -0.279072 -0.279348
-0.414164 -0.299433 -0.117476
-0.507681 -0.257761 -0.10594
-0.591117 -0.431458 -0.165992
-0.676958 -0.355607 -0.144678
-0.550519 -0.211155 -0.211432
-0.629192 -0.184233 -0.184456
-0.708615 -0.279072 -0.279348
-0.770167 -0.23657 -0.236793
-0.507681 -0.257761 -0.10594
-0.600255 -0.211994 -0.0915084
-0.676958 -0.355607 -0.144678
-0.75914 -0.27642 -0.120797
-0.645001 -0.320049 -0.320325
-0.708615 -0.279072 -0.279348
-0.824846 -0.3995 -0.399758
-0.871425 -0.342752 -0.343009
-0.591117 -0.431458 -0.165992
-0.676958 -0.355607 -0.144678
-0.773644 -0.563155 -0.202796
-0.851507 -0.45114 -0.174184
-0.708615 -0.279072 -0.279348
-0.770167 -0.23657 -0.236793
-0.871425 -0.342752 -0.343009
-0.914677 -0.285383 -0.285588
-0.676958 -0.355607 -0.144678
-0.75914 -0.27642 -0.120797
-0.851507 -0.45114 -0.174184
-0.92259 -0.336999 -0.14295
-0.414164 -0.299433 -0.117476
-0.507681 -0.257761 -0.10594
-0.591117 -0.431458 -0.165992
-0.676958 -0.355607 -0.144678
-0.353355 -0.353417 -5.36572e-05
-0.461777 -0.297695 -0.0017617
-0.528626 -0.528688 -0.0101556
-0.639159 -0.423289 -0.0099878
-0.507681 -0.257761 -0.10594
-0.600255 -0.211994 -0.0915084
-0.676958 -0.355607 -0.144678
-0.75914 -0.27642 -0.120797
-0.461777 -0.297695 -0.0017617
-0.568793 -0.235633 -4.68126e-05
-0.639159 -0.423289 -0.0099878
-0.74362 -0.311389 -0.00574822
-0.591117 -0.431458 -0.165992
-0.676958 -0.355607 -0.144678
-0.773644 -0.563155 -0.202796
-0.851507 -0.45114 -0.174184
-0.528626 -0.528688 -0.0101556
-0.639159 -0.423289 -0.0099878
-0.706886 -0.706953 -4.69625e-05
-0.821364 -0.547881 -0.00292293
-0.676958 -0.355607 -0.144678
-0.75914 -0.27642 -0.120797
-0.851507 -0.45114 -0.174184
-0.92259 -0.336999 -0.14295
-0.639159 -0.423289 -0.0099878
-0.74362 -0.311389 -0.00574822
-0.821364 -0.547881 -0.00292293
-0.923614 -0.382608 -4.03399e-05
-0.353378 2.58637e-05 -0.353829
-0.4618 -0.00168218 -0.298107
-0.414192 -0.117315 -0.299815
-0.507709 -0.105779 -0.258142
-0.173979 -0.0144679 -0.17434
-0.35354 -0.0141401 -0.152595
-0.294255 -0.154842 -0.15508
-0.43185 -0.134109 -0.134347
-0.4618 -0.00168218 -0.298107
-0.568826 2.17656e-05 -0.235907
-0.507709 -0.105779 -0.258142
-0.600283 -0.0913744 -0.212258
-0.35354 -0.0141401 -0.152595
-0.536647 -0.00242068 -0.115985
-0.43185 -0.134109 -0.134347
-0.570168 -0.105874 -0.10603
-0.414192 -0.117315 -0.299815
-0.507709 -0.105779 -0.258142
-0.47121 -0.235635 -0.235912
-0.550519 -0.211155 -0.211432
-0.294255 -0.154842 -0.15508
-0.43185 -0.134109 -0.134347
-0.414164 -0.299433 -0.117476
-0.507681 -0.257761 -0.10594
-0.507709 -0.105779 -0.258142
-0.600283 -0.0913744 -0.212258
-0.550519 -0.211155 -0.211432
-0.629192 -0.184233 -0.184456
-0.43185 -0.134109 -0.134347
-0.570168 -0.105874 -0.10603
-0.507681 -0.257761 -0.10594
-0.600255 -0.211994 -0.0915084
-0.173979 -0.0144679 -0.17434
-0.35354 -0.0141401 -0.152595
-0.294255 -0.154842 -0.15508
-0.43185 -0.134109 -0.134347
0.000119517 3.95107e-05 -8.51721e-05
-0.243676 -0.012588 -0.0127127
-0.174014 -0.174094 -0.0145851
-0.353575 -0.152349 -0.0142573
-0.35354 -0.0141401 -0.152595
-0.536647 -0.00242068 -0.115985
-0.43185 -0.134109 -0.134347
-0.570168 -0.105874 -0.10603
-0.243676 -0.012588 -0.0127127
-0.499757 2.6264e-05 -5.59932e-05
-0.353575 -0.152349 -0.0142573
-0.536638 -0.115825 -0.00249917
-0.294255 -0.154842 -0.15508
-0.43185 -0.134109 -0.134347
-0.414164 -0.299433 -0.117476
-0.507681 -0.257761 -0.10594
-0.174014 -0.174094 -0.0145851
-0.353575 -0.152349 -0.0142573
-0.353355 -0.353417 -5.36572e-05
-0.461777 -0.297695 -0.0017617
-0.43185 -0.134109 -0.134347
-0.570168 -0.105874 -0.10603
-0.507681 -0.257761 -0.10594
-0.600255 -0.211994 -0.0915084
-0.353575 -0.152349 -0.0142573
-0.536638 -0.115825 -0.00249917
-0.461777 -0.297695 -0.0017617
-0.568793 -0.235633 -4.68126e-05
0.35342 -1.07579e-05 0.35381
0.41105 0.11765 0.285575
0.537285 -0.0281886 0.537675
0.596629 0.137248 0.402613
0.45986 -0.00426189 0.291345
0.503448 0.102388 0.243277
0.641521 -0.0301267 0.418048
0.678125 0.118468 0.329429
0.41105 0.11765 0.285575
0.471247 0.23565 0.23589
0.596629 0.137248 0.402613
0.66089 0.312213 0.312425
0.503448 0.102388 0.243277
0.548421 0.208426 0.208664
0.678125 0.118468 0.329429
0.717456 0.269659 0.269882
0.537285 -0.0281886 0.537675
0.596629 0.137248 0.402613
0.706987 -7.06582e-06 0.707354
0.757684 0.193311 0.519937
0.641521 -0.0301267 0.418048
0.678125 0.118468 0.329429
0.807751 -0.0161545 0.544741
0.831462 0.161694 0.421985
0.596629 0.137248 0.402613
0.66089 0.312213 0.312425
0.757684 0.193311 0.519937
0.816365 0.408197 0.408367
0.678125 0.118468 0.329429
0.717456 0.269659 0.269882
0.831462 0.161694 0.421985
0.859774 0.346686 0.346874
0.45986 -0.00426189 0.291345
0.503448 0.102388 0.243277
0.641521 -0.0301267 0.418048
0.678125 0.118468 0.329429
0.568863 -1.05854e-05 0.235889
0.598325 0.0930846 0.20606
0.753734 -0.0138281 0.304371
0.766454 0.108329 0.259042
0.503448 0.102388 0.243277
0.548421 0.208426 0.208664
0.678125 0.118468 0.329429
0.717456 0.269659 0.269882
0.598325 0.0930846 0.20606
0.628374 0.185113 0.185299
0.766454 0.108329 0.259042
0.780686 0.229491 0.229676
0.641521 -0.0301267 0.418048
0.678125 0.118468 0.329429
0.807751 -0.0161545 0.544741
0.831462 0.161694 0.421985
0.753734 -0.0138281 0.304371
0.766454 0.108329 0.259042
0.923707 -9.07618e-06 0.382848
0.917351 0.143661 0.322932
0.678125 0.118468 0.329429
0.717456 0.269659 0.269882
0.831462 0.161694 0.421985
0.859774 0.346686 0.346874
0.766454 0.108329 0.259042
0.780686 0.229491 0.229676
0.917351 0.143661 0.322932
0.913777 0.286891 0.287051
0.471247 0.23565 0.23589
0.411011 0.285228 0.117775
0.66089 0.312213 0.312425
0.596592 0.402284 0.13736
0.548421 0.208426 0.208664
0.50341 0.242931 0.102511
0.717456 0.269659 0.269882
0.678088 0.329094 0.118585
0.411011 0.285228 0.117775
0.353382 0.353432 2.70571e-05
0.596592 0.402284 0.13736
0.537247 0.537297 -0.0281508
0.50341 0.242931 0.102511
[...]
POINT_DATA 8192
SCALARS A_0 double 1
LOOKUP_TABLE default
1.00132 0.999986 1.003 0.999708 0.999784 0.997586 0.999909 0.996167 0.999986 0.997429 0.999708 0.994586 0.997586 0.994977 0.996167 0.994321 1.003 0.999708 1.00608 0.999718 0.999909 0.996167 0.999886 0.995539 0.999708 0.994586 0.999718 0.996219 0.996167 0.994321 0.995539 0.992617 0.999784 0.997586 0.999909 0.996167 0.998026 0.996912 0.996227 0.996325 0.997586 0.994977 0.996167 0.994321 0.996912 0.995902 0.996325 0.993861 0.999909 0.996167 0.999886 0.995539 0.996227 0.996325 0.995573 0.992773 0.996167 0.994321 0.995539 0.992617 0.996325 0.993861 0.992773 0.992164 0.997429 0.996464 0.994586 0.993779 0.994977 0.994988 0.994321 0.993333 0.996464 0.996743 0.993779 0.992145 0.994988 0.994698 0.993333 0.992358 0.994586 0.993779 0.996219 0.991627 0.994321 0.993333 0.992617 0.988234 0.993779 0.992145 0.991627 0.988895 0.993333 0.992358 0.988234 0.989577 0.994977 0.994988 0.994321 0.993333 0.995902 0.996073 0.993861 0.993049 0.994988 0.994698 0.993333 0.992358 0.996073 0.994307 0.993049 0.992202 0.994321 0.993333 0.992617 0.988234 0.993861 0.993049 0.992164 0.99082 0.993333 0.992358 0.988234 0.989577 0.993049 0.992202 0.99082 0.98888 0.998026 0.996912 0.996227 0.996325 0.996791 0.995734 0.99444 0.993283 0.996912 0.995902 0.996325 0.993861 0.995734 0.996073 0.993283 0.993049 0.996227 0.996325 0.995573 0.992773 0.99444 0.993283 0.986607 0.990708 0.996325 0.993861 0.992773 0.992164 0.993283 0.993049 0.990708 0.99082 0.996791 0.995734 0.99444 0.993283 0.996224 0.996837 0.994707 0.991224 0.995734 0.996073 0.993283 0.993049 0.996837 0.994307 0.991224 0.992202 0.99444 0.993283 0.986607 0.990708 0.994707 0.991224 0.990457 0.99097 0.993283 0.993049 0.990708 0.99082 0.991224 0.992202 0.99097 0.98888 1.00132 0.999986 0.999784 0.997586 1.00024 0.998863 0.998891 0.996817 0.999986 0.997429 0.997586 0.994977 0.998863 0.996464 0.996817 0.994988 0.999784 0.997586 0.998026 0.996912 0.998891 0.996817 0.996791 0.995734 0.997586 0.994977 0.996912 0.995902 0.996817 0.994988 0.995734 0.996073 1.00024 0.998863 0.998891 0.996817 0.999557 0.999042 0.99846 0.996923 0.998863 0.996464 0.996817 0.994988 0.999042 0.996743 0.996923 0.994698 0.998891 0.996817 0.996791 0.995734 0.99846 0.996923 0.996224 0.996837 0.996817 0.994988 0.995734 0.996073 0.996923 0.994698 0.996837 0.994307 1.00168 0.9997 1.00335 0.999617 0.999539 0.997871 0.999403 0.996852 0.9997 0.997624 0.999617 0.996693 0.997871 0.99758 0.996852 0.995522 1.00335 0.999617 1.00525 0.999418 0.999403 0.996852 0.999408 0.995721 0.999617 0.996693 0.999418 0.99559 0.996852 0.995522 0.995721 0.994277 0.999539 0.997871 0.999403 0.996852 0.996312 0.99534 0.995331 0.993371 0.997871 0.99758 0.996852 0.995522 0.99534 0.996534 0.993371 0.99409 0.999403 0.996852 0.999408 0.995721 0.995331 0.993371 0.993486 0.994672 0.996852 0.995522 0.995721 0.994277 0.993371 0.99409 0.994672 0.988373 0.997624 0.997396 0.996693 0.992273 0.99758 0.996248 0.995522 0.99229 0.997396 0.997807 0.992273 0.99374 0.996248 0.994478 0.99229 0.992534 0.996693 0.992273 0.99559 0.991476 0.995522 0.99229 0.994277 0.992735 0.992273 0.99374 0.991476 0.993215 0.99229 0.992534 0.992735 0.986267 0.99758 0.996248 0.995522 0.99229 0.996534 0.996029 0.99409 0.992345 0.996248 0.994478 0.99229 0.992534 0.996029 0.996718 0.992345 0.993119 0.995522 0.99229 0.994277 0.992735 0.99409 0.992345 0.988373 0.991151 0.99229 0.992534 0.992735 0.986267 0.992345 0.993119 0.991151 0.994342 0.996312 0.99534 0.995331 0.993371 0.996387 0.995352 0.994526 0.993931 0.99534 0.996534 0.993371 0.99409 0.995352 0.996029 0.993931 0.992345 0.995331 0.993371 0.993486 0.994672 0.994526 0.993931 0.994187 0.99303 0.993371 0.99409 0.994672 0.988373 0.993931 0.992345 0.99303 0.991151 0.996387 0.995352 0.994526 0.993931 0.996993 0.996593 0.992731 0.992897 0.995352 0.996029 0.993931 0.992345 0.996593 0.996718 0.992897 0.993119 0.994526 0.993931 0.994187 0.99303 0.992731 0.992897 0.989679 0.989707 0.993931 0.992345 0.99303 0.991151 0.992897 0.993119 0.989707 0.994342 1.00168 0.9997 0.999539 0.997871 1.00021 0.998693 0.998775 0.997914 0.9997 0.997624 0.997871 0.99758 0.998693 0.997396 0.997914 0.996248 0.999539 0.997871 0.996312 0.99534 0.998775 0.997914 0.996387 0.995352 0.997871 0.99758 0.99534 0.996534 0.997914 0.996248 0.995352 0.996029 1.00021 0.998693 0.998775 0.997914 0.999557 1.00002 0.9993 0.996848 0.998693 0.997396 0.997914 0.996248 1.00002 0.997807 0.996848 0.994478 0.998775 0.997914 0.996387 0.995352 0.9993 0.996848 0.996993 0.996593 0.997914 0.996248 0.995352 0.996029 0.996848 0.994478 0.996593 0.996718 1.00668 1.00829 1.00919 1.01361 1.00712 1.00873 1.01513 1.01411 1.00829 1.00536 1.01361 1.0122 1.00873 1.00572 1.01411 1.01006 1.00919 1.01361 1.01269 1.01694 1.01513 1.01411 1.01208 1.01201 1.01361 1.0122 1.01694 1.01069 1.01411 1.01006 1.01201 1.01307 1.00712 1.00873 1.01513 1.01411 1.0063 1.00716 1.01445 1.01465 1.00873 1.00572 1.01411 1.01006 1.00716 1.00638 1.01465 1.00677 1.01513 1.01411 1.01208 1.01201 1.01445 1.01465 1.00783 1.01614 1.01411 1.01006 1.01201 1.01307 1.01465 1.00677 1.01614 1.01029 1.00536 1.00412 1.0122 1.00788 1.00572 1.00577 1.01006 1.00922 1.00412 1.00195 1.00788 1.00253 1.00577 1.00307 1.00922 1.0082 1.0122 1.00788 1.01069 1.01003 1.01006 1.00922 1.01307 1.01423 1.00788 1.00253 1.01003 1.00646 1.00922 1.0082 1.01423 1.0062 1.00572 1.00577 1.01006 1.00922 1.00638 1.00772 1.00677 1.00675 1.00577 1.00307 1.00922 1.0082 1.00772 1.00418 1.00675 1.00855 1.01006 1.00922 1.01307 1.01423 1.00677 1.00675 1.01029 1.0096 1.00922 1.0082 1.01423 1.0062 1.00675 1.00855 1.0096 1.00759 1.0063 1.00716 1.01445 1.01465 1.00534 1.00482 1.00789 1.01101 1.00716 1.00638 1.01465 1.00677 1.00482 1.00772 1.01101 1.00675 1.01445 1.01465 1.00783 1.01614 1.00789 1.01101 1.01197 1.01305 1.01465 1.00677 1.01614 1.01029 1.01101 1.00675 1.01305 1.0096 1.00534 1.00482 1.00789 1.01101 1.0015 1.00325 1.00356 1.00403 1.00482 1.00772 1.01101 1.00675 1.00325 1.00418 1.00403 1.00855 1.00789 1.01101 1.01197 1.01305 1.00356 1.00403 1.00617 1.00696 1.01101 1.00675 1.01305 1.0096 1.00403 1.00855 1.00696 1.00759 1.00668 1.00829 1.00712 1.00873 1.0009 1.0018 1.00322 1.00381 1.00829 1.00536 1.00873 1.00572 1.0018 1.00412 1.00381 1.00577 1.00712 1.00873 1.0063 1.00716 1.00322 1.00381 1.00534 1.00482 1.00873 1.00572 1.00716 1.00638 1.00381 1.00577 1.00482 1.00772 1.0009 1.0018 1.00322 1.00381 0.999557 0.998888 0.999595 1.00153 1.0018 1.00412 1.00381 1.00577 0.998888 1.00195 1.00153 1.00307 1.00322 1.00381 1.00534 1.00482 0.999595 1.00153 1.0015 1.00325 1.00381 1.00577 1.00482 1.00772 1.00153 1.00307 1.00325 1.00418 1.00845 1.00772 1.01378 1.01348 1.00772 1.00906 1.01011 1.00712 1.00772 1.00841 1.01348 1.01004 1.00906 1.01241 1.00712 1.0157 1.01378 1.01348 1.02241 1.01872 1.01011 1.00712 1.0233 1.02214 1.01348 1.01004 1.01872 1.0099 1.00712 1.0157 1.02214 1.01172 1.00772 1.00906 1.01011 1.00712 1.0072 1.0075 1.00978 1.01134 1.00906 1.01241 1.00712 1.0157 1.0075 1.00733 1.01134 1.01577 1.01011 1.00712 1.0233 1.02214 1.00978 1.01134 1.01584 1.01733 1.00712 1.0157 1.02214 1.01172 1.01134 1.01577 1.01733 1.01887 1.00841 1.00522 1.01004 1.00832 1.01241 1.00628 1.0157 1.00571 1.00522 1.00153 1.00832 1.00383 1.00628 1.00282 1.00571 1.0078 1.01004 1.00832 1.0099 1.01666 1.0157 1.00571 1.01172 1.01374 1.00832 1.00383 1.01666 1.00395 1.00571 1.0078 1.01374 1.00709 1.01241 1.00628 1.0157 1.00571 1.00733 1.00616 1.01577 1.01013 1.00628 1.00282 1.00571 1.0078 1.00616 1.00401 1.01013 1.00738 1.0157 1.00571 1.01172 1.01374 1.01577 1.01013 1.01887 1.01801 1.00571 1.0078 1.01374 1.00709 1.01013 1.00738 1.01801 1.01523 1.0072 1.0075 1.00978 1.01134 1.00464 1.00547 1.00944 1.00715 1.0075 1.00733 1.01134 1.01577 1.00547 1.00616 1.00715 1.01013 1.00978 1.01134 1.01584 1.01733 1.00944 1.00715 1.00257 1.01776 1.01134 1.01577 1.01733 1.01887 1.00715 1.01013 1.01776 1.01801 1.00464 1.00547 1.00944 1.00715 1.00111 1.00219 1.0032 1.00583 1.00547 1.00616 1.00715 1.01013 1.00219 1.00401 1.00583 1.00738 1.00944 1.00715 1.00257 1.01776 1.0032 1.00583 1.00473 1.00423 1.00715 1.01013 1.01776 1.01801 1.00583 1.00738 1.00423 1.01523 1.00845 1.00772 1.00772 1.00906 1.00063 1.00221 1.00202 1.00277 1.00772 1.00841 1.00906 1.01241 1.00221 1.00522 1.00277 1.00628 1.00772 1.00906 1.0072 1.0075 1.00202 1.00277 1.00464 1.00547 1.00906 1.01241 1.0075 1.00733 1.00277 1.00628 1.00547 1.00616 1.00063 1.00221 1.00202 1.00277 0.999557 0.999403 1.00008 1.00118 1.00221 1.00522 1.00277 1.00628 0.999403 1.00153 1.00118 1.00282 1.00202 1.00277 1.00464 1.00547 1.00008 1.00118 1.00111 1.00219 1.00277 1.00628 1.00547 1.00616 1.00118 1.00282 1.00219 1.00401 1.00176 0.999802 1.00265 0.999548 0.999546 0.997472 0.999092 0.99595 0.999802 0.998884 0.999548 0.996613 0.997472 0.996888 0.99595 0.995787 1.00265 0.999548 1.00548 0.999751 0.999092 0.99595 0.999331 0.997811 0.999548 0.996613 0.999751 0.995637 0.99595 0.995787 0.997811 0.997708 0.999546 0.997472 0.999092 0.99595 0.997578 0.996473 0.996279 0.993478 0.997472 0.996888 0.99595 0.995787 0.996473 0.995653 0.993478 0.992277 0.999092 0.99595 0.999331 0.997811 0.996279 0.993478 0.993741 0.990516 0.99595 0.995787 0.997811 0.997708 0.993478 0.992277 0.990516 0.989426 0.998884 0.995993 0.996613 0.993818 0.996888 0.99637 0.995787 0.993624 0.995993 0.996067 0.993818 0.990576 0.99637 0.996625 0.993624 0.992737 0.996613 0.993818 0.995637 0.991188 0.995787 0.993624 0.997708 0.996195 0.993818 0.990576 0.991188 0.989912 0.993624 0.992737 0.996195 0.991581 0.996888 0.99637 0.995787 0.993624 0.995653 0.995062 0.992277 0.991286 0.99637 0.996625 0.993624 0.992737 0.995062 0.99641 0.991286 0.990489 0.995787 0.993624 0.997708 0.996195 0.992277 0.991286 0.989426 0.986157 0.993624 0.992737 0.996195 0.991581 0.991286 0.990489 0.986157 0.993126 0.997578 0.996473 0.996279 0.993478 0.995694 0.994776 0.993686 0.991296 0.996473 0.995653 0.993478 0.992277 0.994776 0.995062 0.991296 0.991286 0.996279 0.993478 0.993741 0.990516 0.993686 0.991296 0.989354 0.989158 0.993478 0.992277 0.990516 0.989426 0.991296 0.991286 0.989158 0.986157 0.995694 0.994776 0.993686 0.991296 0.995493 0.995315 0.993371 0.992958 0.994776 0.995062 0.991296 0.991286 0.995315 0.99641 0.992958 0.990489 0.993686 0.991296 0.989354 0.989158 0.993371 0.992958 0.991378 0.987397 0.991296 0.991286 0.989158 0.986157 0.992958 0.990489 0.987397 0.993126 1.00176 0.999802 0.999546 0.997472 0.999679 0.998938 0.998443 0.997169 0.999802 0.998884 0.997472 0.996888 0.998938 0.995993 0.997169 0.99637 0.999546 0.997472 0.997578 0.996473 0.998443 0.997169 0.995694 0.994776 0.997472 0.996888 0.996473 0.995653 0.997169 0.99637 0.994776 0.995062 0.999679 0.998938 0.998443 0.997169 0.999557 0.998969 0.999027 0.997725 0.998938 0.995993 0.997169 0.99637 0.998969 0.996067 0.997725 0.996625 0.998443 0.997169 0.995694 0.994776 0.999027 0.997725 0.995493 0.995315 0.997169 0.99637 0.994776 0.995062 0.997725 0.996625 0.995315 0.99641 0.997252 0.997376 0.993949 0.994529 0.996107 0.995656 0.993107 0.994528 0.997376 0.997916 0.994529 0.994266 0.995656 0.996539 0.994528 0.995026 0.993949 0.994529 0.987511 0.994851 0.993107 0.994528 0.989589 0.991791 0.994529 0.994266 0.994851 0.9955 0.994528 0.995026 0.991791 0.996785 0.996107 0.995656 0.993107 0.994528 0.996899 0.995551 0.99221 0.995123 0.995656 0.996539 0.994528 0.995026 0.995551 0.996197 0.995123 0.994279 0.993107 0.994528 0.989589 0.991791 0.99221 0.995123 0.985873 0.993904 0.994528 0.995026 0.991791 0.996785 0.995123 0.994279 0.993904 0.994403 0.997916 0.999692 0.994266 1.00067 0.996539 0.997569 0.995026 0.997925 0.999692 1.00127 1.00067 1.00371 0.997569 0.999278 0.997925 1.00021 0.994266 1.00067 0.9955 1.00037 0.995026 0.997925 0.996785 0.996243 1.00067 1.00371 1.00037 1.00558 0.997925 1.00021 0.996243 0.999699 0.996539 0.997569 0.995026 0.997925 0.996197 0.99607 0.994279 0.99425 0.997569 0.999278 0.997925 1.00021 0.99607 0.996232 0.99425 0.996166 0.995026 0.997925 0.996785 0.996243 0.994279 0.99425 0.994403 0.990508 0.997925 1.00021 0.996243 0.999699 0.99425 0.996166 0.990508 0.993941 0.996899 0.995551 0.99221 0.995123 0.996586 0.996017 0.99158 0.992005 0.995551 0.996197 0.995123 0.994279 0.996017 0.99607 0.992005 0.99425 0.99221 0.995123 0.985873 0.993904 0.99158 0.992005 0.991007 0.990609 0.995123 0.994279 0.993904 0.994403 0.992005 0.99425 0.990609 0.990508 0.996586 0.996017 0.99158 0.992005 0.996651 0.9967 0.994688 0.992997 0.996017 0.99607 0.992005 0.99425 0.9967 0.996232 0.992997 0.996166 0.99158 0.992005 0.991007 0.990609 0.994688 0.992997 0.989801 0.989569 0.992005 0.99425 0.990609 0.990508 0.992997 0.996166 0.989569 0.993941 0.997252 0.997376 0.996107 0.995656 0.999478 0.999279 0.998713 0.997748 0.997376 0.997916 0.995656 0.996539 0.999279 0.999692 0.997748 0.997569 0.996107 0.995656 0.996899 0.995551 0.998713 0.997748 0.996586 0.996017 0.995656 0.996539 0.995551 0.996197 0.997748 0.997569 0.996017 0.99607 0.999478 0.999279 0.998713 0.997748 0.999557 1.00064 1.00002 0.999201 0.999279 0.999692 0.997748 0.997569 1.00064 1.00127 0.999201 0.999278 0.998713 0.997748 0.996586 0.996017 1.00002 0.999201 0.996651 0.9967 0.997748 0.997569 0.996017 0.99607 0.999201 0.999278 0.9967 0.996232 0.997252 0.996107 0.993949 0.993107 0.995997 0.995298 0.994398 0.990037 0.996107 0.996899 0.993107 0.99221 0.995298 0.996426 0.990037 0.993133 0.993949 0.993107 0.987511 0.989589 0.994398 0.990037 0.995175 0.994337 0.993107 0.99221 0.989589 0.985873 0.990037 0.993133 0.994337 0.990597 0.995997 0.995298 0.994398 0.990037 0.997383 0.996492 0.996387 0.994796 0.995298 0.996426 0.990037 0.993133 0.996492 0.996702 0.994796 0.991804 0.994398 0.990037 0.995175 0.994337 0.996387 0.994796 0.993532 0.992749 0.990037 0.993133 0.994337 0.990597 0.994796 0.991804 0.992749 0.991355 0.996899 0.996586 0.99221 0.99158 0.996426 0.994748 0.993133 0.99677 0.996586 0.996651 0.99158 0.994688 0.994748 0.997262 0.99677 0.99433 0.99221 0.99158 0.985873 0.991007 0.993133 0.99677 0.990597 0.993364 0.99158 0.994688 0.991007 0.989801 0.99677 0.99433 0.993364 0.992176 0.996426 0.994748 0.993133 0.99677 0.996702 0.996703 0.991804 0.993213 0.994748 0.997262 0.99677 0.99433 0.996703 0.9962 0.993213 0.996037 0.993133 0.99677 0.990597 0.993364 0.991804 0.993213 0.991355 0.991781 0.99677 0.99433 0.993364 0.992176 0.993213 0.996037 0.991781 0.990161 0.997383 0.996492 0.996387 0.994796 0.99955 0.99793 0.999873 0.996591 0.996492 0.996702 0.994796 0.991804 0.99793 0.996703 0.996591 0.993213 0.996387 0.994796 0.993532 0.992749 0.999873 0.996591 1.00059 0.994632 0.994796 0.991804 0.992749 0.991355 0.996591 0.993213 0.994632 0.991781 0.99955 0.99793 0.999873 0.996591 1.0015 0.998789 1.00356 0.998858 0.99793 0.996703 0.996591 0.993213 0.998789 0.9962 0.998858 0.996037 0.999873 0.996591 1.00059 0.994632 1.00356 0.998858 1.00617 0.999036 0.996591 0.993213 0.994632 0.991781 0.998858 0.996037 0.999036 0.990161 0.997252 0.996107 0.995997 0.995298 0.999478 0.998713 0.998806 0.997733 0.996107 0.996899 0.995298 0.996426 0.998713 0.996586 0.997733 0.994748 0.995997 0.995298 0.997383 0.996492 0.998806 0.997733 0.99955 0.99793 0.995298 0.996426 0.996492 0.996702 0.997733 0.994748 0.99793 0.996703 0.999478 0.998713 0.998806 0.997733 0.999557 1.00002 0.999595 0.997925 0.998713 0.996586 0.997733 0.994748 1.00002 0.996651 0.997925 0.997262 0.998806 0.997733 0.99955 0.99793 0.999595 0.997925 1.0015 0.998789 0.997733 0.994748 0.99793 0.996703 0.997925 0.997262 0.998789 0.9962 1.00168 0.999539 1.00335 0.999403 1.00021 0.99828 1.00036 0.996853 0.999539 0.996312 0.999403 0.995331 0.99828 0.996736 0.996853 0.995101 1.00335 0.999403 1.00525 0.999408 1.00036 0.996853 1.00063 0.997562 0.999403 0.995331 0.999408 0.993486 0.996853 0.995101 0.997562 0.997976 1.00021 0.99828 1.00036 0.996853 0.998066 0.997328 0.995193 0.99535 0.99828 0.996736 0.996853 0.995101 0.997328 0.994747 0.99535 0.992985 1.00036 0.996853 1.00063 0.997562 0.995193 0.99535 0.991192 0.994434 0.996853 0.995101 0.997562 0.997976 0.99535 0.992985 0.994434 0.992858 0.996312 0.996387 0.995331 0.994526 0.996736 0.997473 0.995101 0.992771 0.996387 0.996993 0.994526 0.992731 0.997473 0.996418 0.992771 0.994061 0.995331 0.994526 0.993486 0.994187 0.995101 0.992771 0.997976 0.987392 0.994526 0.992731 0.994187 0.989679 0.992771 0.994061 0.987392 0.992629 0.996736 0.997473 0.995101 0.992771 0.994747 0.995398 0.992985 0.990676 0.997473 0.996418 0.992771 0.994061 0.995398 0.996227 0.990676 0.993573 0.995101 0.992771 0.997976 0.987392 0.992985 0.990676 0.992858 0.992969 0.992771 0.994061 0.987392 0.992629 0.990676 0.993573 0.992969 0.985897 0.998066 0.997328 0.995193 0.99535 0.99691 0.994859 0.994043 0.99191 0.997328 0.994747 0.99535 0.992985 0.994859 0.995398 0.99191 0.990676 0.995193 0.99535 0.991192 0.994434 0.994043 0.99191 0.996102 0.991665 0.99535 0.992985 0.994434 0.992858 0.99191 0.990676 0.991665 0.992969 0.99691 0.994859 0.994043 0.99191 0.996067 0.995695 0.990576 0.993973 0.994859 0.995398 0.99191 0.990676 0.995695 0.996227 0.993973 0.993573 0.994043 0.99191 0.996102 0.991665 0.990576 0.993973 0.989912 0.990421 0.99191 0.990676 0.991665 0.992969 0.993973 0.993573 0.990421 0.985897 1.00168 0.999539 1.00021 0.99828 1.00021 0.998775 0.999521 0.997968 0.999539 0.996312 0.99828 0.996736 0.998775 0.996387 0.997968 0.997473 1.00021 0.99828 0.998066 0.997328 0.999521 0.997968 0.99691 0.994859 0.99828 0.996736 0.997328 0.994747 0.997968 0.997473 0.994859 0.995398 1.00021 0.998775 0.999521 0.997968 0.999557 0.9993 0.998969 0.998312 0.998775 0.996387 0.997968 0.997473 0.9993 0.996993 0.998312 0.996418 0.999521 0.997968 0.99691 0.994859 0.998969 0.998312 0.996067 0.995695 0.997968 0.997473 0.994859 0.995398 0.998312 0.996418 0.995695 0.996227 1.00127 0.999818 1.00371 1.00072 0.999278 0.997973 1.00021 0.998113 0.999818 0.997744 1.00072 0.996918 0.997973 0.995429 0.998113 0.995195 1.00371 1.00072 1.00558 1.00037 1.00021 0.998113 0.999699 0.996987 1.00072 0.996918 1.00037 0.995339 0.998113 0.995195 0.996987 0.992428 0.999278 0.997973 1.00021 0.998113 0.996232 0.995676 0.996166 0.9949 0.997973 0.995429 0.998113 0.995195 0.995676 0.995285 0.9949 0.99484 1.00021 0.998113 0.999699 0.996987 0.996166 0.9949 0.993941 0.991794 0.998113 0.995195 0.996987 0.992428 0.9949 0.99484 0.991794 0.99459 0.997807 0.997961 0.99374 0.99222 0.996825 0.996026 0.995439 0.994404 0.997961 0.994083 0.99222 0.99243 0.996026 0.997155 0.994404 0.994801 0.99374 0.99222 0.993215 0.989949 0.995439 0.994404 0.992364 0.996304 0.99222 0.99243 0.989949 0.987289 0.994404 0.994801 0.996304 0.995392 0.996825 0.996026 0.995439 0.994404 0.997744 0.995429 0.996918 0.995195 0.996026 0.997155 0.994404 0.994801 0.995429 0.995285 0.995195 0.99484 0.995439 0.994404 0.992364 0.996304 0.996918 0.995195 0.995339 0.992428 0.994404 0.994801 0.996304 0.995392 0.995195 0.99484 0.992428 0.99459 0.996651 0.9967 0.994688 0.992997 0.996894 0.99614 0.991714 0.994669 0.9967 0.996232 0.992997 0.996166 0.99614 0.995676 0.994669 0.9949 0.994688 0.992997 0.989801 0.989569 0.991714 0.994669 0.991061 0.990859 0.992997 0.996166 0.989569 0.993941 0.994669 0.9949 0.990859 0.991794 0.996894 0.99614 0.991714 0.994669 0.994083 0.997155 0.99243 0.994801 0.99614 0.995676 0.994669 0.9949 0.997155 0.995285 0.994801 0.99484 0.991714 0.994669 0.991061 0.990859 0.99243 0.994801 0.987289 0.995392 0.994669 0.9949 0.990859 0.991794 0.994801 0.99484 0.995392 0.99459 0.999557 1.00064 1.00002 0.999201 1.00002 0.999387 0.998983 0.998673 1.00064 1.00127 0.999201 0.999278 0.999387 0.999818 0.998673 0.997973 1.00002 0.999201 0.996651 0.9967 0.998983 0.998673 0.996894 0.99614 0.999201 0.999278 0.9967 0.996232 0.998673 0.997973 0.99614 0.995676 1.00002 0.999387 0.998983 0.998673 0.997807 0.996825 0.997961 0.996026 0.999387 0.999818 0.998673 0.997973 0.996825 0.997744 0.996026 0.995429 0.998983 0.998673 0.996894 0.99614 0.997961 0.996026 0.994083 0.997155 0.998673 0.997973 0.99614 0.995676 0.996026 0.995429 0.997155 0.995285 0.996886 0.996273 0.997262 0.99365 1.00001 0.998844 1.00019 0.997277 0.996273 0.994425 0.