# vtk DataFile Version 3.0
#This file was generated by the deal.II library on 2025/4/16 at 17:57:47
ASCII
DATASET UNSTRUCTURED_GRID

POINTS 8192 double
-0.352404 0.000192265 -0.355403
-0.460826 -0.00151578 -0.299682
-0.527675 -0.0099097 -0.530675
-0.638207 -0.00974188 -0.425276
-0.413218 -0.117148 -0.301389
-0.506735 -0.105613 -0.259716
-0.590171 -0.165664 -0.433414
-0.676012 -0.14435 -0.357562
-0.460826 -0.00151578 -0.299682
-0.56765 0.000165383 -0.237083
-0.638207 -0.00974188 -0.425276
-0.742477 -0.00553602 -0.312838
-0.506735 -0.105613 -0.259716
-0.599107 -0.0912308 -0.213434
-0.676012 -0.14435 -0.357562
-0.757992 -0.12052 -0.27786
-0.527675 -0.0099097 -0.530675
-0.638207 -0.00974188 -0.425276
-0.706009 0.000161567 -0.70889
-0.820488 -0.0027144 -0.549818
-0.590171 -0.165664 -0.433414
-0.676012 -0.14435 -0.357562
-0.772763 -0.202516 -0.56505
-0.850626 -0.173904 -0.453036
-0.638207 -0.00974188 -0.425276
-0.742477 -0.00553602 -0.312838
-0.820488 -0.0027144 -0.549818
-0.922479 0.000148143 -0.38394
-0.676012 -0.14435 -0.357562
-0.757992 -0.12052 -0.27786
-0.850626 -0.173904 -0.453036
-0.921441 -0.142704 -0.338318
-0.413218 -0.117148 -0.301389
-0.506735 -0.105613 -0.259716
-0.590171 -0.165664 -0.433414
-0.676012 -0.14435 -0.357562
-0.470123 -0.235241 -0.23711
-0.549432 -0.210761 -0.21263
-0.643913 -0.319655 -0.321524
-0.707528 -0.278678 -0.280547
-0.506735 -0.105613 -0.259716
-0.599107 -0.0912308 -0.213434
-0.676012 -0.14435 -0.357562
-0.757992 -0.12052 -0.27786
-0.549432 -0.210761 -0.21263
-0.627954 -0.183893 -0.185409
-0.707528 -0.278678 -0.280547
-0.768929 -0.236229 -0.237745
-0.590171 -0.165664 -0.433414
-0.676012 -0.14435 -0.357562
-0.772763 -0.202516 -0.56505
-0.850626 -0.173904 -0.453036
-0.643913 -0.319655 -0.321524
-0.707528 -0.278678 -0.280547
-0.823747 -0.399118 -0.400859
-0.870326 -0.34237 -0.344111
-0.676012 -0.14435 -0.357562
-0.757992 -0.12052 -0.27786
-0.850626 -0.173904 -0.453036
-0.921441 -0.142704 -0.338318
-0.707528 -0.278678 -0.280547
-0.768929 -0.236229 -0.237745
-0.870326 -0.34237 -0.344111
-0.913406 -0.285039 -0.286436
-0.56765 0.000165383 -0.237083
-0.535329 -0.00227428 -0.116758
-0.742477 -0.00553602 -0.312838
-0.747811 -0.0102867 -0.159871
-0.599107 -0.0912308 -0.213434
-0.56885 -0.105727 -0.106803
-0.757992 -0.12052 -0.27786
-0.756042 -0.142215 -0.143291
-0.535329 -0.00227428 -0.116758
-0.498389 0.000191951 -0.000384659
-0.747811 -0.0102867 -0.159871
-0.744073 -0.00974934 -0.0103259
-0.56885 -0.105727 -0.106803
-0.53527 -0.115659 -0.00282783
-0.756042 -0.142215 -0.143291
-0.747752 -0.158772 -0.0108402
-0.742477 -0.00553602 -0.312838
-0.747811 -0.0102867 -0.159871
-0.922479 0.000148143 -0.38394
-0.967741 -0.0031633 -0.191426
-0.757992 -0.12052 -0.27786
-0.756042 -0.142215 -0.143291
-0.921441 -0.142704 -0.338318
-0.94958 -0.169745 -0.170698
-0.747811 -0.0102867 -0.159871
-0.744073 -0.00974934 -0.0103259
-0.967741 -0.0031633 -0.191426
-0.998187 0.00020076 -0.000332924
-0.756042 -0.142215 -0.143291
-0.747752 -0.158772 -0.0108402
-0.94958 -0.169745 -0.170698
-0.967588 -0.190439 -0.00366271
-0.599107 -0.0912308 -0.213434
-0.56885 -0.105727 -0.106803
-0.757992 -0.12052 -0.27786
-0.756042 -0.142215 -0.143291
-0.627954 -0.183893 -0.185409
-0.598917 -0.211647 -0.0921564
-0.768929 -0.236229 -0.237745
-0.757802 -0.276073 -0.121445
-0.56885 -0.105727 -0.106803
-0.53527 -0.115659 -0.00282783
-0.756042 -0.142215 -0.143291
-0.747752 -0.158772 -0.0108402
-0.598917 -0.211647 -0.0921564
-0.567427 -0.235231 -0.000320458
-0.757802 -0.276073 -0.121445
-0.742254 -0.310986 -0.00602186
-0.757992 -0.12052 -0.27786
-0.756042 -0.142215 -0.143291
-0.921441 -0.142704 -0.338318
-0.94958 -0.169745 -0.170698
-0.768929 -0.236229 -0.237745
-0.757802 -0.276073 -0.121445
-0.913406 -0.285039 -0.286436
-0.921171 -0.336631 -0.143513
-0.756042 -0.142215 -0.143291
-0.747752 -0.158772 -0.0108402
-0.94958 -0.169745 -0.170698
-0.967588 -0.190439 -0.00366271
-0.757802 -0.276073 -0.121445
-0.742254 -0.310986 -0.00602186
-0.921171 -0.336631 -0.143513
-0.92211 -0.382169 -0.000276682
-0.470123 -0.235241 -0.23711
-0.549432 -0.210761 -0.21263
-0.643913 -0.319655 -0.321524
-0.707528 -0.278678 -0.280547
-0.413023 -0.298824 -0.118252
-0.50654 -0.257152 -0.106717
-0.589976 -0.430849 -0.166768
-0.675817 -0.354998 -0.145454
-0.549432 -0.210761 -0.21263
-0.627954 -0.183893 -0.185409
-0.707528 -0.278678 -0.280547
-0.768929 -0.236229 -0.237745
-0.50654 -0.257152 -0.106717
-0.598917 -0.211647 -0.0921564
-0.675817 -0.354998 -0.145454
-0.757802 -0.276073 -0.121445
-0.643913 -0.319655 -0.321524
-0.707528 -0.278678 -0.280547
-0.823747 -0.399118 -0.400859
-0.870326 -0.34237 -0.344111
-0.589976 -0.430849 -0.166768
-0.675817 -0.354998 -0.145454
-0.772423 -0.562508 -0.203473
-0.850286 -0.450494 -0.17486
-0.707528 -0.278678 -0.280547
-0.768929 -0.236229 -0.237745
-0.870326 -0.34237 -0.344111
-0.913406 -0.285039 -0.286436
-0.675817 -0.354998 -0.145454
-0.757802 -0.276073 -0.121445
-0.850286 -0.450494 -0.17486
-0.921171 -0.336631 -0.143513
-0.413023 -0.298824 -0.118252
-0.50654 -0.257152 -0.106717
-0.589976 -0.430849 -0.166768
-0.675817 -0.354998 -0.145454
-0.352243 -0.352638 -0.000361174
-0.460665 -0.296917 -0.00206922
-0.527515 -0.52791 -0.0104631
-0.638047 -0.422511 -0.0102953
-0.50654 -0.257152 -0.106717
-0.598917 -0.211647 -0.0921564
-0.675817 -0.354998 -0.145454
-0.757802 -0.276073 -0.121445
-0.460665 -0.296917 -0.00206922
-0.567427 -0.235231 -0.000320458
-0.638047 -0.422511 -0.0102953
-0.742254 -0.310986 -0.00602186
-0.589976 -0.430849 -0.166768
-0.675817 -0.354998 -0.145454
-0.772423 -0.562508 -0.203473
-0.850286 -0.450494 -0.17486
-0.527515 -0.52791 -0.0104631
-0.638047 -0.422511 -0.0102953
-0.705644 -0.706074 -0.000315999
-0.820122 -0.547002 -0.00319197
-0.675817 -0.354998 -0.145454
-0.757802 -0.276073 -0.121445
-0.850286 -0.450494 -0.17486
-0.921171 -0.336631 -0.143513
-0.638047 -0.422511 -0.0102953
-0.742254 -0.310986 -0.00602186
-0.820122 -0.547002 -0.00319197
-0.92211 -0.382169 -0.000276682
-0.352404 0.000192265 -0.355403
-0.460826 -0.00151578 -0.299682
-0.413218 -0.117148 -0.301389
-0.506735 -0.105613 -0.259716
-0.173122 -0.0142688 -0.175518
-0.352683 -0.0139409 -0.153773
-0.293398 -0.154643 -0.156258
-0.430994 -0.13391 -0.135525
-0.460826 -0.00151578 -0.299682
-0.56765 0.000165383 -0.237083
-0.506735 -0.105613 -0.259716
-0.599107 -0.0912308 -0.213434
-0.352683 -0.0139409 -0.153773
-0.535329 -0.00227428 -0.116758
-0.430994 -0.13391 -0.135525
-0.56885 -0.105727 -0.106803
-0.413218 -0.117148 -0.301389
-0.506735 -0.105613 -0.259716
-0.470123 -0.235241 -0.23711
-0.549432 -0.210761 -0.21263
-0.293398 -0.154643 -0.156258
-0.430994 -0.13391 -0.135525
-0.413023 -0.298824 -0.118252
-0.50654 -0.257152 -0.106717
-0.506735 -0.105613 -0.259716
-0.599107 -0.0912308 -0.213434
-0.549432 -0.210761 -0.21263
-0.627954 -0.183893 -0.185409
-0.430994 -0.13391 -0.135525
-0.56885 -0.105727 -0.106803
-0.50654 -0.257152 -0.106717
-0.598917 -0.211647 -0.0921564
-0.173122 -0.0142688 -0.175518
-0.352683 -0.0139409 -0.153773
-0.293398 -0.154643 -0.156258
-0.430994 -0.13391 -0.135525
0.000780041 0.000278924 -0.00057306
-0.243016 -0.0123486 -0.0132006
-0.173354 -0.173855 -0.015073
-0.352915 -0.15211 -0.0147452
-0.352683 -0.0139409 -0.153773
-0.535329 -0.00227428 -0.116758
-0.430994 -0.13391 -0.135525
-0.56885 -0.105727 -0.106803
-0.243016 -0.0123486 -0.0132006
-0.498389 0.000191951 -0.000384659
-0.352915 -0.15211 -0.0147452
-0.53527 -0.115659 -0.00282783
-0.293398 -0.154643 -0.156258
-0.430994 -0.13391 -0.135525
-0.413023 -0.298824 -0.118252
-0.50654 -0.257152 -0.106717
-0.173354 -0.173855 -0.015073
-0.352915 -0.15211 -0.0147452
-0.352243 -0.352638 -0.000361174
-0.460665 -0.296917 -0.00206922
-0.430994 -0.13391 -0.135525
-0.56885 -0.105727 -0.106803
-0.50654 -0.257152 -0.106717
-0.598917 -0.211647 -0.0921564
-0.352915 -0.15211 -0.0147452
-0.53527 -0.115659 -0.00282783
-0.460665 -0.296917 -0.00206922
-0.567427 -0.235231 -0.000320458
0.352649 -6.60007e-05 0.355283
0.410279 0.117595 0.287049
0.536514 -0.0282438 0.539148
0.595859 0.137192 0.404087
0.459089 -0.00431713 0.292818
0.502677 0.102332 0.24475
0.64075 -0.0301819 0.419521
0.677354 0.118413 0.330903
0.410279 0.117595 0.287049
0.470335 0.235362 0.236973
0.595859 0.137192 0.404087
0.659978 0.311926 0.313508
0.502677 0.102332 0.24475
0.54751 0.208139 0.209747
0.677354 0.118413 0.330903
0.716544 0.269372 0.270965
0.536514 -0.0282438 0.539148
0.595859 0.137192 0.404087
0.706288 -4.16259e-05 0.708774
0.756986 0.193276 0.521357
0.64075 -0.0301819 0.419521
0.677354 0.118413 0.330903
0.807053 -0.0161891 0.546161
0.830764 0.16166 0.423405
0.595859 0.137192 0.404087
0.659978 0.311926 0.313508
0.756986 0.193276 0.521357
0.815455 0.407923 0.40933
0.677354 0.118413 0.330903
0.716544 0.269372 0.270965
0.830764 0.16166 0.423405
0.858865 0.346413 0.347837
0.459089 -0.00431713 0.292818
0.502677 0.102332 0.24475
0.64075 -0.0301819 0.419521
0.677354 0.118413 0.330903
0.567862 -6.5153e-05 0.236966
0.597324 0.09303 0.207138
0.752733 -0.0138827 0.305448
0.765453 0.108274 0.26012
0.502677 0.102332 0.24475
0.54751 0.208139 0.209747
0.677354 0.118413 0.330903
0.716544 0.269372 0.270965
0.597324 0.09303 0.207138
0.627294 0.18486 0.18614
0.765453 0.108274 0.26012
0.779606 0.229238 0.230517
0.64075 -0.0301819 0.419521
0.677354 0.118413 0.330903
0.807053 -0.0161891 0.546161
0.830764 0.16166 0.423405
0.752733 -0.0138827 0.305448
0.765453 0.108274 0.26012
0.922708 -5.52721e-05 0.383806
0.916352 0.143615 0.323889
0.677354 0.118413 0.330903
0.716544 0.269372 0.270965
0.830764 0.16166 0.423405
0.858865 0.346413 0.347837
0.765453 0.108274 0.26012
0.779606 0.229238 0.230517
0.916352 0.143615 0.323889
0.912669 0.286636 0.287755
0.470335 0.235362 0.236973
0.410018 0.284734 0.118436
0.659978 0.311926 0.313508
0.595599 0.40179 0.138021
0.54751 0.208139 0.209747
0.502416 0.242437 0.103172
0.716544 0.269372 0.270965
0.677094 0.328599 0.119245
0.410018 0.284734 0.118436
0.352386 0.352767 0.000189467
0.595599 0.40179 0.138021
0.536251 0.536632 -0.0279884
[...]
POINT_DATA 8192
SCALARS A_0 double 1
LOOKUP_TABLE default
0.999916 1.00142 1.0026 1.00118 0.999113 0.996811 0.999711 0.995758 1.00142 0.996681 1.00118 0.994748 0.996811 0.993122 0.995758 0.992034 1.0026 1.00118 1.00502 1.00097 0.999711 0.995758 0.999589 0.994992 1.00118 0.994748 1.00097 0.995819 0.995758 0.992034 0.994992 0.991219 0.999113 0.996811 0.999711 0.995758 0.998841 0.99589 0.997374 0.994743 0.996811 0.993122 0.995758 0.992034 0.99589 0.994646 0.994743 0.993384 0.999711 0.995758 0.999589 0.994992 0.997374 0.994743 0.996352 0.992768 0.995758 0.992034 0.994992 0.991219 0.994743 0.993384 0.992768 0.992179 0.996681 0.995629 0.994748 0.992734 0.993122 0.992997 0.992034 0.990442 0.995629 0.996761 0.992734 0.990734 0.992997 0.993435 0.990442 0.989053 0.994748 0.992734 0.995819 0.991972 0.992034 0.990442 0.991219 0.98796 0.992734 0.990734 0.991972 0.989374 0.990442 0.989053 0.98796 0.988671 0.993122 0.992997 0.992034 0.990442 0.994646 0.995345 0.993384 0.992922 0.992997 0.993435 0.990442 0.989053 0.995345 0.995098 0.992922 0.992269 0.992034 0.990442 0.991219 0.98796 0.993384 0.992922 0.992179 0.991864 0.990442 0.989053 0.98796 0.988671 0.992922 0.992269 0.991864 0.99103 0.998841 0.99589 0.997374 0.994743 0.996677 0.995462 0.99289 0.991543 0.99589 0.994646 0.994743 0.993384 0.995462 0.995345 0.991543 0.992922 0.997374 0.994743 0.996352 0.992768 0.99289 0.991543 0.987951 0.990222 0.994743 0.993384 0.992768 0.992179 0.991543 0.992922 0.990222 0.991864 0.996677 0.995462 0.99289 0.991543 0.996494 0.995592 0.992865 0.989631 0.995462 0.995345 0.991543 0.992922 0.995592 0.995098 0.989631 0.992269 0.99289 0.991543 0.987951 0.990222 0.992865 0.989631 0.991028 0.99014 0.991543 0.992922 0.990222 0.991864 0.989631 0.992269 0.99014 0.99103 0.999916 1.00142 0.999113 0.996811 0.998788 0.99826 0.997754 0.994764 1.00142 0.996681 0.996811 0.993122 0.99826 0.995629 0.994764 0.992997 0.999113 0.996811 0.998841 0.99589 0.997754 0.994764 0.996677 0.995462 0.996811 0.993122 0.99589 0.994646 0.994764 0.992997 0.995462 0.995345 0.998788 0.99826 0.997754 0.994764 0.997043 0.996794 0.996527 0.99438 0.99826 0.995629 0.994764 0.992997 0.996794 0.996761 0.99438 0.993435 0.997754 0.994764 0.996677 0.995462 0.996527 0.99438 0.996494 0.995592 0.994764 0.992997 0.995462 0.995345 0.99438 0.993435 0.995592 0.995098 1.0006 0.999157 1.00359 0.999382 0.999555 0.996993 0.999857 0.995964 0.999157 0.996874 0.999382 0.995938 0.996993 0.996297 0.995964 0.994626 1.00359 0.999382 1.00461 0.999154 0.999857 0.995964 0.999636 0.995241 0.999382 0.995938 0.999154 0.995359 0.995964 0.994626 0.995241 0.993558 0.999555 0.996993 0.999857 0.995964 0.994756 0.993204 0.99417 0.991923 0.996993 0.996297 0.995964 0.994626 0.993204 0.994857 0.991923 0.993133 0.999857 0.995964 0.999636 0.995241 0.99417 0.991923 0.993743 0.992538 0.995964 0.994626 0.995241 0.993558 0.991923 0.993133 0.992538 0.990758 0.996874 0.996739 0.995938 0.991412 0.996297 0.994939 0.994626 0.990206 0.996739 0.997795 0.991412 0.993325 0.994939 0.993451 0.990206 0.98865 0.995938 0.991412 0.995359 0.991744 0.994626 0.990206 0.993558 0.99138 0.991412 0.993325 0.991744 0.994011 0.990206 0.98865 0.99138 0.98674 0.996297 0.994939 0.994626 0.990206 0.994857 0.995639 0.993133 0.992766 0.994939 0.993451 0.990206 0.98865 0.995639 0.996098 0.992766 0.992938 0.994626 0.990206 0.993558 0.99138 0.993133 0.992766 0.990758 0.992506 0.990206 0.98865 0.99138 0.98674 0.992766 0.992938 0.992506 0.994533 0.994756 0.993204 0.99417 0.991923 0.994516 0.994499 0.992292 0.992178 0.993204 0.994857 0.991923 0.993133 0.994499 0.995639 0.992178 0.992766 0.99417 0.991923 0.993743 0.992538 0.992292 0.992178 0.992914 0.992703 0.991923 0.993133 0.992538 0.990758 0.992178 0.992766 0.992703 0.992506 0.994516 0.994499 0.992292 0.992178 0.994781 0.996111 0.990805 0.990785 0.994499 0.995639 0.992178 0.992766 0.996111 0.996098 0.990785 0.992938 0.992292 0.992178 0.992914 0.992703 0.990805 0.990785 0.989673 0.990271 0.992178 0.992766 0.992703 0.992506 0.990785 0.992938 0.990271 0.994533 1.0006 0.999157 0.999555 0.996993 0.999032 0.99716 0.996732 0.996044 0.999157 0.996874 0.996993 0.996297 0.99716 0.996739 0.996044 0.994939 0.999555 0.996993 0.994756 0.993204 0.996732 0.996044 0.994516 0.994499 0.996993 0.996297 0.993204 0.994857 0.996044 0.994939 0.994499 0.995639 0.999032 0.99716 0.996732 0.996044 0.997043 1.00355 0.999245 0.993606 0.99716 0.996739 0.996044 0.994939 1.00355 0.997795 0.993606 0.993451 0.996732 0.996044 0.994516 0.994499 0.999245 0.993606 0.994781 0.996111 0.996044 0.994939 0.994499 0.995639 0.993606 0.993451 0.996111 0.996098 1.0085 1.00751 1.01135 1.0137 1.00723 1.00748 1.01464 1.01336 1.00751 1.00838 1.0137 1.01287 1.00748 1.00812 1.01336 1.01061 1.01135 1.0137 1.01197 1.01501 1.01464 1.01336 1.01125 1.01118 1.0137 1.01287 1.01501 1.01133 1.01336 1.01061 1.01118 1.01145 1.00723 1.00748 1.01464 1.01336 1.00926 1.00924 1.01417 1.01396 1.00748 1.00812 1.01336 1.01061 1.00924 1.00963 1.01396 1.01018 1.01464 1.01336 1.01125 1.01118 1.01417 1.01396 1.00874 1.01354 1.01336 1.01061 1.01118 1.01145 1.01396 1.01018 1.01354 1.01037 1.00838 1.00539 1.01287 1.00819 1.00812 1.0054 1.01061 1.00859 1.00539 1.0019 1.00819 1.00194 1.0054 1.00153 1.00859 1.00591 1.01287 1.00819 1.01133 1.00965 1.01061 1.00859 1.01145 1.01173 1.00819 1.00194 1.00965 1.0054 1.00859 1.00591 1.01173 1.00548 1.00812 1.0054 1.01061 1.00859 1.00963 1.00857 1.01018 1.00894 1.0054 1.00153 1.00859 1.00591 1.00857 1.00565 1.00894 1.0085 1.01061 1.00859 1.01145 1.01173 1.01018 1.00894 1.01037 1.00931 1.00859 1.00591 1.01173 1.00548 1.00894 1.0085 1.00931 1.00773 1.00926 1.00924 1.01417 1.01396 1.00571 1.00581 1.0085 1.01011 1.00924 1.00963 1.01396 1.01018 1.00581 1.00857 1.01011 1.00894 1.01417 1.01396 1.00874 1.01354 1.0085 1.01011 1.01056 1.01165 1.01396 1.01018 1.01354 1.01037 1.01011 1.00894 1.01165 1.00931 1.00571 1.00581 1.0085 1.01011 1.00099 1.00183 1.00268 1.00386 1.00581 1.00857 1.01011 1.00894 1.00183 1.00565 1.00386 1.0085 1.0085 1.01011 1.01056 1.01165 1.00268 1.00386 1.00497 1.00584 1.01011 1.00894 1.01165 1.00931 1.00386 1.0085 1.00584 1.00773 1.0085 1.00751 1.00723 1.00748 0.996166 1.00062 1.001 0.999603 1.00751 1.00838 1.00748 1.00812 1.00062 1.00539 0.999603 1.0054 1.00723 1.00748 1.00926 1.00924 1.001 0.999603 1.00571 1.00581 1.00748 1.00812 1.00924 1.00963 0.999603 1.0054 1.00581 1.00857 0.996166 1.00062 1.001 0.999603 0.997043 0.992156 0.995015 0.999378 1.00062 1.00539 0.999603 1.0054 0.992156 1.0019 0.999378 1.00153 1.001 0.999603 1.00571 1.00581 0.995015 0.999378 1.00099 1.00183 0.999603 1.0054 1.00581 1.00857 0.999378 1.00153 1.00183 1.00565 1.00889 1.00891 1.01469 1.01431 1.00649 1.0078 1.01096 1.01007 1.00891 1.01088 1.01431 1.01285 1.0078 1.01072 1.01007 1.01384 1.01469 1.01431 1.02071 1.01723 1.01096 1.01007 1.02058 1.01801 1.01431 1.01285 1.01723 1.01028 1.01007 1.01384 1.01801 1.01184 1.00649 1.0078 1.01096 1.01007 1.0084 1.00873 1.01093 1.01212 1.0078 1.01072 1.01007 1.01384 1.00873 1.01076 1.01212 1.01498 1.01096 1.01007 1.02058 1.01801 1.01093 1.01212 1.01359 1.01645 1.01007 1.01384 1.01801 1.01184 1.01212 1.01498 1.01645 1.01742 1.01088 1.00631 1.01285 1.00863 1.01072 1.00601 1.01384 1.00724 1.00631 1.00028 1.00863 1.00289 1.00601 1.00157 1.00724 1.00601 1.01285 1.00863 1.01028 1.01412 1.01384 1.00724 1.01184 1.01113 1.00863 1.00289 1.01412 1.00282 1.00724 1.00601 1.01113 1.00644 1.01072 1.00601 1.01384 1.00724 1.01076 1.00819 1.01498 1.01188 1.00601 1.00157 1.00724 1.00601 1.00819 1.00575 1.01188 1.00899 1.01384 1.00724 1.01184 1.01113 1.01498 1.01188 1.01742 1.01693 1.00724 1.00601 1.01113 1.00644 1.01188 1.00899 1.01693 1.014 1.0084 1.00873 1.01093 1.01212 1.00474 1.00603 1.0078 1.00833 1.00873 1.01076 1.01212 1.01498 1.00603 1.00819 1.00833 1.01188 1.01093 1.01212 1.01359 1.01645 1.0078 1.00833 1.00379 1.01394 1.01212 1.01498 1.01645 1.01742 1.00833 1.01188 1.01394 1.01693 1.00474 1.00603 1.0078 1.00833 0.998931 1.00207 1.00185 1.0056 1.00603 1.00819 1.00833 1.01188 1.00207 1.00575 1.0056 1.00899 1.0078 1.00833 1.00379 1.01394 1.00185 1.0056 1.00205 1.00439 1.00833 1.01188 1.01394 1.01693 1.0056 1.00899 1.00439 1.014 1.00889 1.00891 1.00649 1.0078 0.997861 1.00083 0.998437 0.999269 1.00891 1.01088 1.0078 1.01072 1.00083 1.00631 0.999269 1.00601 1.00649 1.0078 1.0084 1.00873 0.998437 0.999269 1.00474 1.00603 1.0078 1.01072 1.00873 1.01076 0.999269 1.00601 1.00603 1.00819 0.997861 1.00083 0.998437 0.999269 0.997043 0.994436 0.996978 0.996994 1.00083 1.00631 0.999269 1.00601 0.994436 1.00028 0.996994 1.00157 0.998437 0.999269 1.00474 1.00603 0.996978 0.996994 0.998931 1.00207 0.999269 1.00601 1.00603 1.00819 0.996994 1.00157 1.00207 1.00575 1.00078 0.999698 1.00249 0.999617 0.999569 0.997014 0.999681 0.995683 0.999698 0.999407 0.999617 0.997868 0.997014 0.996166 0.995683 0.994687 1.00249 0.999617 1.00513 1.00009 0.999681 0.995683 0.999634 0.996576 0.999617 0.997868 1.00009 0.997348 0.995683 0.994687 0.996576 0.995748 0.999569 0.997014 0.999681 0.995683 0.995404 0.993632 0.994437 0.991579 0.997014 0.996166 0.995683 0.994687 0.993632 0.99445 0.991579 0.99225 0.999681 0.995683 0.999634 0.996576 0.994437 0.991579 0.993154 0.990016 0.995683 0.994687 0.996576 0.995748 0.991579 0.99225 0.990016 0.991072 0.999407 0.995815 0.997868 0.9925 0.996166 0.995084 0.994687 0.991215 0.995815 0.995937 0.9925 0.990351 0.995084 0.99419 0.991215 0.988818 0.997868 0.9925 0.997348 0.991862 0.994687 0.991215 0.995748 0.993833 0.9925 0.990351 0.991862 0.990655 0.991215 0.988818 0.993833 0.989856 0.996166 0.995084 0.994687 0.991215 0.99445 0.994956 0.99225 0.991362 0.995084 0.99419 0.991215 0.988818 0.994956 0.995701 0.991362 0.991093 0.994687 0.991215 0.995748 0.993833 0.99225 0.991362 0.991072 0.988976 0.991215 0.988818 0.993833 0.989856 0.991362 0.991093 0.988976 0.993246 0.995404 0.993632 0.994437 0.991579 0.993737 0.993712 0.991264 0.989979 0.993632 0.99445 0.991579 0.99225 0.993712 0.994956 0.989979 0.991362 0.994437 0.991579 0.993154 0.990016 0.991264 0.989979 0.989176 0.988411 0.991579 0.99225 0.990016 0.991072 0.989979 0.991362 0.988411 0.988976 0.993737 0.993712 0.991264 0.989979 0.993954 0.995111 0.990644 0.990877 0.993712 0.994956 0.989979 0.991362 0.995111 0.995701 0.990877 0.991093 0.991264 0.989979 0.989176 0.988411 0.990644 0.990877 0.990327 0.98896 0.989979 0.991362 0.988411 0.988976 0.990877 0.991093 0.98896 0.993246 1.00078 0.999698 0.999569 0.997014 0.996466 0.997532 0.99635 0.99543 0.999698 0.999407 0.997014 0.996166 0.997532 0.995815 0.99543 0.995084 0.999569 0.997014 0.995404 0.993632 0.99635 0.99543 0.993737 0.993712 0.997014 0.996166 0.993632 0.99445 0.99543 0.995084 0.993712 0.994956 0.996466 0.997532 0.99635 0.99543 0.997043 0.999827 0.996095 0.994694 0.997532 0.995815 0.99543 0.995084 0.999827 0.995937 0.994694 0.99419 0.99635 0.99543 0.993737 0.993712 0.996095 0.994694 0.993954 0.995111 0.99543 0.995084 0.993712 0.994956 0.994694 0.99419 0.995111 0.995701 0.996938 0.996739 0.993887 0.99405 0.995381 0.996459 0.992097 0.99484 0.996739 0.996028 0.99405 0.994407 0.996459 0.994641 0.99484 0.994209 0.993887 0.99405 0.989394 0.994574 0.992097 0.99484 0.989851 0.993587 0.99405 0.994407 0.994574 0.995493 0.99484 0.994209 0.993587 0.996015 0.995381 0.996459 0.992097 0.99484 0.996877 0.996927 0.993086 0.995406 0.996459 0.994641 0.99484 0.994209 0.996927 0.994227 0.995406 0.993385 0.992097 0.99484 0.989851 0.993587 0.993086 0.995406 0.988872 0.995032 0.99484 0.994209 0.993587 0.996015 0.995406 0.993385 0.995032 0.994161 0.996028 0.998407 0.994407 1.00147 0.994641 0.996206 0.994209 0.99912 0.998407 0.998775 1.00147 1.00412 0.996206 0.99805 0.99912 1.00249 0.994407 1.00147 0.995493 1.00069 0.994209 0.99912 0.996015 0.997143 1.00147 1.00412 1.00069 1.00433 0.99912 1.00249 0.997143 1.00073 0.994641 0.996206 0.994209 0.99912 0.994227 0.993009 0.993385 0.992173 0.996206 0.99805 0.99912 1.00249 0.993009 0.992914 0.992173 0.993469 0.994209 0.99912 0.996015 0.997143 0.993385 0.992173 0.994161 0.990237 0.99912 1.00249 0.997143 1.00073 0.992173 0.993469 0.990237 0.992063 0.996877 0.996927 0.993086 0.995406 0.998829 0.997261 0.993131 0.992042 0.996927 0.994227 0.995406 0.993385 0.997261 0.993009 0.992042 0.992173 0.993086 0.995406 0.988872 0.995032 0.993131 0.992042 0.992361 0.991824 0.995406 0.993385 0.995032 0.994161 0.992042 0.992173 0.991824 0.990237 0.998829 0.997261 0.993131 0.992042 0.99868 0.997633 0.9944 0.992344 0.997261 0.993009 0.992042 0.992173 0.997633 0.992914 0.992344 0.993469 0.993131 0.992042 0.992361 0.991824 0.9944 0.992344 0.991842 0.99076 0.992042 0.992173 0.991824 0.990237 0.992344 0.993469 0.99076 0.992063 0.996938 0.996739 0.995381 0.996459 1.00087 0.99932 1.00001 0.999289 0.996739 0.996028 0.996459 0.994641 0.99932 0.998407 0.999289 0.996206 0.995381 0.996459 0.996877 0.996927 1.00001 0.999289 0.998829 0.997261 0.996459 0.994641 0.996927 0.994227 0.999289 0.996206 0.997261 0.993009 1.00087 0.99932 1.00001 0.999289 0.997043 1.00081 1.00386 1.00096 0.99932 0.998407 0.999289 0.996206 1.00081 0.998775 1.00096 0.99805 1.00001 0.999289 0.998829 0.997261 1.00386 1.00096 0.99868 0.997633 0.999289 0.996206 0.997261 0.993009 1.00096 0.99805 0.997633 0.992914 0.996938 0.995381 0.993887 0.992097 0.9941 0.992469 0.99231 0.989076 0.995381 0.996877 0.992097 0.993086 0.992469 0.99409 0.989076 0.991477 0.993887 0.992097 0.989394 0.989851 0.99231 0.989076 0.994155 0.992605 0.992097 0.993086 0.989851 0.988872 0.989076 0.991477 0.992605 0.990827 0.9941 0.992469 0.99231 0.989076 0.996026 0.994869 0.996019 0.993802 0.992469 0.99409 0.989076 0.991477 0.994869 0.994204 0.993802 0.992392 0.99231 0.989076 0.994155 0.992605 0.996019 0.993802 0.994902 0.993388 0.989076 0.991477 0.992605 0.990827 0.993802 0.992392 0.993388 0.992481 0.996877 0.998829 0.993086 0.993131 0.99409 0.995566 0.991477 0.994123 0.998829 0.99868 0.993131 0.9944 0.995566 0.996354 0.994123 0.992829 0.993086 0.993131 0.988872 0.992361 0.991477 0.994123 0.990827 0.993635 0.993131 0.9944 0.992361 0.991842 0.994123 0.992829 0.993635 0.99259 0.99409 0.995566 0.991477 0.994123 0.994204 0.994558 0.992392 0.992559 0.995566 0.996354 0.994123 0.992829 0.994558 0.993774 0.992559 0.993696 0.991477 0.994123 0.990827 0.993635 0.992392 0.992559 0.992481 0.991784 0.994123 0.992829 0.993635 0.99259 0.992559 0.993696 0.991784 0.991431 0.996026 0.994869 0.996019 0.993802 0.997495 0.996225 0.998715 0.996404 0.994869 0.994204 0.993802 0.992392 0.996225 0.994558 0.996404 0.992559 0.996019 0.993802 0.994902 0.993388 0.998715 0.996404 1.00032 0.995416 0.993802 0.992392 0.993388 0.992481 0.996404 0.992559 0.995416 0.991784 0.997495 0.996225 0.998715 0.996404 1.00099 0.996185 1.00268 0.997661 0.996225 0.994558 0.996404 0.992559 0.996185 0.993774 0.997661 0.993696 0.998715 0.996404 1.00032 0.995416 1.00268 0.997661 1.00497 0.998153 0.996404 0.992559 0.995416 0.991784 0.997661 0.993696 0.998153 0.991431 0.996938 0.995381 0.9941 0.992469 1.00087 1.00001 0.996617 0.996087 0.995381 0.996877 0.992469 0.99409 1.00001 0.998829 0.996087 0.995566 0.9941 0.992469 0.996026 0.994869 0.996617 0.996087 0.997495 0.996225 0.992469 0.99409 0.994869 0.994204 0.996087 0.995566 0.996225 0.994558 1.00087 1.00001 0.996617 0.996087 0.997043 1.00386 0.995015 0.994647 1.00001 0.998829 0.996087 0.995566 1.00386 0.99868 0.994647 0.996354 0.996617 0.996087 0.997495 0.996225 0.995015 0.994647 1.00099 0.996185 0.996087 0.995566 0.996225 0.994558 0.994647 0.996354 0.996185 0.993774 1.0006 0.999555 1.00359 0.999857 1.00122 0.998921 1.00188 0.997656 0.999555 0.994756 0.999857 0.99417 0.998921 0.995557 0.997656 0.994384 1.00359 0.999857 1.00461 0.999636 1.00188 0.997656 1.00106 0.99788 0.999857 0.99417 0.999636 0.993743 0.997656 0.994384 0.99788 0.996066 1.00122 0.998921 1.00188 0.997656 0.996906 0.995429 0.99483 0.993646 0.998921 0.995557 0.997656 0.994384 0.995429 0.994199 0.993646 0.992374 1.00188 0.997656 1.00106 0.99788 0.99483 0.993646 0.991998 0.993371 0.997656 0.994384 0.99788 0.996066 0.993646 0.992374 0.993371 0.99312 0.994756 0.994516 0.99417 0.992292 0.995557 0.996316 0.994384 0.991907 0.994516 0.994781 0.992292 0.990805 0.996316 0.996417 0.991907 0.992643 0.99417 0.992292 0.993743 0.992914 0.994384 0.991907 0.996066 0.989541 0.992292 0.990805 0.992914 0.989673 0.991907 0.992643 0.989541 0.992282 0.995557 0.996316 0.994384 0.991907 0.994199 0.994707 0.992374 0.99105 0.996316 0.996417 0.991907 0.992643 0.994707 0.99567 0.99105 0.992752 0.994384 0.991907 0.996066 0.989541 0.992374 0.99105 0.99312 0.992217 0.991907 0.992643 0.989541 0.992282 0.99105 0.992752 0.992217 0.988248 0.996906 0.995429 0.99483 0.993646 0.996544 0.994855 0.993227 0.991135 0.995429 0.994199 0.993646 0.992374 0.994855 0.994707 0.991135 0.99105 0.99483 0.993646 0.991998 0.993371 0.993227 0.991135 0.995425 0.992044 0.993646 0.992374 0.993371 0.99312 0.991135 0.99105 0.992044 0.992217 0.996544 0.994855 0.993227 0.991135 0.995937 0.996803 0.990351 0.99322 0.994855 0.994707 0.991135 0.99105 0.996803 0.99567 0.99322 0.992752 0.993227 0.991135 0.995425 0.992044 0.990351 0.99322 0.990655 0.99211 0.991135 0.99105 0.992044 0.992217 0.99322 0.992752 0.99211 0.988248 1.0006 0.999555 1.00122 0.998921 0.999032 0.996732 1.00034 0.99814 0.999555 0.994756 0.998921 0.995557 0.996732 0.994516 0.99814 0.996316 1.00122 0.998921 0.996906 0.995429 1.00034 0.99814 0.996544 0.994855 0.998921 0.995557 0.995429 0.994199 0.99814 0.996316 0.994855 0.994707 0.999032 0.996732 1.00034 0.99814 0.997043 0.999245 0.999827 1.0005 0.996732 0.994516 0.99814 0.996316 0.999245 0.994781 1.0005 0.996417 1.00034 0.99814 0.996544 0.994855 0.999827 1.0005 0.995937 0.996803 0.99814 0.996316 0.994855 0.994707 1.0005 0.996417 0.996803 0.99567 0.998775 0.999059 1.00412 1.00207 0.99805 0.995596 1.00249 0.999646 0.999059 0.996724 1.00207 0.996846 0.995596 0.992177 0.999646 0.992867 1.00412 1.00207 1.00433 1.00079 1.00249 0.999646 1.00073 0.996755 1.00207 0.996846 1.00079 0.995348 0.999646 0.992867 0.996755 0.991267 0.99805 0.995596 1.00249 0.999646 0.992914 0.991893 0.993469 0.991899 0.995596 0.992177 0.999646 0.992867 0.991893 0.992411 0.991899 0.991726 1.00249 0.999646 1.00073 0.996755 0.993469 0.991899 0.992063 0.990314 0.999646 0.992867 0.996755 0.991267 0.991899 0.991726 0.990314 0.992154 0.997795 1.00022 0.993325 0.993622 0.996787 0.996801 0.993655 0.993164 1.00022 0.99757 0.993622 0.993771 0.996801 0.99795 0.993164 0.995679 0.993325 0.993622 0.994011 0.992864 0.993655 0.993164 0.993051 0.995154 0.993622 0.993771 0.992864 0.990762 0.993164 0.995679 0.995154 0.99699 0.996787 0.996801 0.993655 0.993164 0.996724 0.992177 0.996846 0.992867 0.996801 0.99795 0.993164 0.995679 0.992177 0.992411 0.992867 0.991726 0.993655 0.993164 0.993051 0.995154 0.996846 0.992867 0.995348 0.991267 0.993164 0.995679 0.995154 0.99699 0.992867 0.991726 0.991267 0.992154 0.99868 0.997633 0.9944 0.992344 1.00001 0.998274 0.994276 0.993886 0.997633 0.992914 0.992344 0.993469 0.998274 0.991893 0.993886 0.991899 0.9944 0.992344 0.991842 0.99076 0.994276 0.993886 0.993613 0.993008 0.992344 0.993469 0.99076 0.992063 0.993886 0.991899 0.993008 0.990314 1.00001 0.998274 0.994276 0.993886 0.99757 0.99795 0.993771 0.995679 0.998274 0.991893 0.993886 0.991899 0.99795 0.992411 0.995679 0.991726 0.994276 0.993886 0.993613 0.993008 0.993771 0.995679 0.990762 0.99699 0.993886 0.991899 0.993008 0.990314 0.995679 0.991726 0.99699 0.992154 0.997043 1.00081 1.00386 1.00096 1.00355 0.99951 1.00461 1.00053 1.00081 0.998775 1.00096 0.99805 0.99951 0.999059 1.00053 0.995596 1.00386 1.00096 0.99868 0.997633 1.00461 1.00053 1.00001 0.998274 1.00096 0.99805 0.997633 0.992914 1.00053 0.995596 0.998274 0.991893 1.00355 0.99951 1.00461 1.00053 0.997795 0.996787 1.00022 0.996801 0.99951 0.999059 1.00053 0.995596 0.996787 0.996724 0.996801 0.992177 1.00461 1.00053 1.00001 0.998274 1.00022 0.996801 0.99757 0.99795 1.00053 0.995596 0.998274 0.991893 0.996801 0.992177 0.99795 0.992411 0.997301 0.994053 0.997713 0.99327 1.00096 1.00027 1.00165 0.998832 0.994053 0.992686 0.99