# vtk DataFile Version 3.0
#This file was generated by the deal.II library on 2025/4/16 at 17:55:34
ASCII
DATASET UNSTRUCTURED_GRID

POINTS 8192 double
-0.353088 7.13714e-05 -0.35429
-0.46151 -0.00163667 -0.298568
-0.52836 -0.0100306 -0.529561
-0.638892 -0.00986277 -0.424162
-0.413903 -0.117269 -0.300275
-0.507419 -0.105734 -0.258603
-0.590856 -0.165785 -0.4323
-0.676696 -0.144471 -0.356449
-0.46151 -0.00163667 -0.298568
-0.568477 6.05036e-05 -0.23625
-0.638892 -0.00986277 -0.424162
-0.743304 -0.0056409 -0.312006
-0.507419 -0.105734 -0.258603
-0.599934 -0.0913357 -0.212601
-0.676696 -0.144471 -0.356449
-0.758819 -0.120624 -0.277027
-0.52836 -0.0100306 -0.529561
-0.638892 -0.00986277 -0.424162
-0.706662 5.86827e-05 -0.707816
-0.821141 -0.00281729 -0.548745
-0.590856 -0.165785 -0.4323
-0.676696 -0.144471 -0.356449
-0.773416 -0.202619 -0.563977
-0.851279 -0.174007 -0.451963
-0.638892 -0.00986277 -0.424162
-0.743304 -0.0056409 -0.312006
-0.821141 -0.00281729 -0.548745
-0.923315 5.34675e-05 -0.383181
-0.676696 -0.144471 -0.356449
-0.758819 -0.120624 -0.277027
-0.851279 -0.174007 -0.451963
-0.922277 -0.142799 -0.33756
-0.413903 -0.117269 -0.300275
-0.507419 -0.105734 -0.258603
-0.590856 -0.165785 -0.4323
-0.676696 -0.144471 -0.356449
-0.470888 -0.235522 -0.236262
-0.550197 -0.211042 -0.211782
-0.644678 -0.319935 -0.320675
-0.708293 -0.278958 -0.279698
-0.507419 -0.105734 -0.258603
-0.599934 -0.0913357 -0.212601
-0.676696 -0.144471 -0.356449
-0.758819 -0.120624 -0.277027
-0.550197 -0.211042 -0.211782
-0.628826 -0.184136 -0.184734
-0.708293 -0.278958 -0.279698
-0.769801 -0.236472 -0.23707
-0.590856 -0.165785 -0.4323
-0.676696 -0.144471 -0.356449
-0.773416 -0.202619 -0.563977
-0.851279 -0.174007 -0.451963
-0.644678 -0.319935 -0.320675
-0.708293 -0.278958 -0.279698
-0.82452 -0.39939 -0.400079
-0.8711 -0.342642 -0.343331
-0.676696 -0.144471 -0.356449
-0.758819 -0.120624 -0.277027
-0.851279 -0.174007 -0.451963
-0.922277 -0.142799 -0.33756
-0.708293 -0.278958 -0.279698
-0.769801 -0.236472 -0.23707
-0.8711 -0.342642 -0.343331
-0.914302 -0.285284 -0.285835
-0.568477 6.05036e-05 -0.23625
-0.536257 -0.0023809 -0.116209
-0.743304 -0.0056409 -0.312006
-0.748739 -0.0103933 -0.159322
-0.599934 -0.0913357 -0.212601
-0.569778 -0.105834 -0.106255
-0.758819 -0.120624 -0.277027
-0.756971 -0.142322 -0.142743
-0.536257 -0.0023809 -0.116209
-0.499353 7.20722e-05 -0.00015059
-0.748739 -0.0103933 -0.159322
-0.745038 -0.00986922 -0.0100919
-0.569778 -0.105834 -0.106255
-0.536234 -0.115779 -0.00259376
-0.756971 -0.142322 -0.142743
-0.748716 -0.158892 -0.0106062
-0.743304 -0.0056409 -0.312006
-0.748739 -0.0103933 -0.159322
-0.923315 5.34675e-05 -0.383181
-0.968735 -0.00326858 -0.19095
-0.758819 -0.120624 -0.277027
-0.756971 -0.142322 -0.142743
-0.922277 -0.142799 -0.33756
-0.950574 -0.16985 -0.170222
-0.748739 -0.0103933 -0.159322
-0.745038 -0.00986922 -0.0100919
-0.968735 -0.00326858 -0.19095
-0.999274 7.53768e-05 -0.000129919
-0.756971 -0.142322 -0.142743
-0.748716 -0.158892 -0.0106062
-0.950574 -0.16985 -0.170222
-0.968675 -0.190564 -0.0034597
-0.599934 -0.0913357 -0.212601
-0.569778 -0.105834 -0.106255
-0.758819 -0.120624 -0.277027
-0.756971 -0.142322 -0.142743
-0.628826 -0.184136 -0.184734
-0.59986 -0.211895 -0.0916968
-0.769801 -0.236472 -0.23707
-0.758745 -0.276321 -0.120986
-0.569778 -0.105834 -0.106255
-0.536234 -0.115779 -0.00259376
-0.756971 -0.142322 -0.142743
-0.748716 -0.158892 -0.0106062
-0.59986 -0.211895 -0.0916968
-0.56839 -0.235517 -0.000125741
-0.758745 -0.276321 -0.120986
-0.743217 -0.311272 -0.00582714
-0.758819 -0.120624 -0.277027
-0.756971 -0.142322 -0.142743
-0.922277 -0.142799 -0.33756
-0.950574 -0.16985 -0.170222
-0.769801 -0.236472 -0.23707
-0.758745 -0.276321 -0.120986
-0.914302 -0.285284 -0.285835
-0.922172 -0.336894 -0.143114
-0.756971 -0.142322 -0.142743
-0.748716 -0.158892 -0.0106062
-0.950574 -0.16985 -0.170222
-0.968675 -0.190564 -0.0034597
-0.758745 -0.276321 -0.120986
-0.743217 -0.311272 -0.00582714
-0.922172 -0.336894 -0.143114
-0.923172 -0.382481 -0.000108446
-0.470888 -0.235522 -0.236262
-0.550197 -0.211042 -0.211782
-0.644678 -0.319935 -0.320675
-0.708293 -0.278958 -0.279698
-0.413826 -0.299255 -0.117703
-0.507343 -0.257583 -0.106167
-0.590779 -0.43128 -0.166218
-0.67662 -0.355429 -0.144904
-0.550197 -0.211042 -0.211782
-0.628826 -0.184136 -0.184734
-0.708293 -0.278958 -0.279698
-0.769801 -0.236472 -0.23707
-0.507343 -0.257583 -0.106167
-0.59986 -0.211895 -0.0916968
-0.67662 -0.355429 -0.144904
-0.758745 -0.276321 -0.120986
-0.644678 -0.319935 -0.320675
-0.708293 -0.278958 -0.279698
-0.82452 -0.39939 -0.400079
-0.8711 -0.342642 -0.343331
-0.590779 -0.43128 -0.166218
-0.67662 -0.355429 -0.144904
-0.773283 -0.562966 -0.202993
-0.851146 -0.450952 -0.174381
-0.708293 -0.278958 -0.279698
-0.769801 -0.236472 -0.23707
-0.8711 -0.342642 -0.343331
-0.914302 -0.285284 -0.285835
-0.67662 -0.355429 -0.144904
-0.758745 -0.276321 -0.120986
-0.851146 -0.450952 -0.174381
-0.922172 -0.336894 -0.143114
-0.413826 -0.299255 -0.117703
-0.507343 -0.257583 -0.106167
-0.590779 -0.43128 -0.166218
-0.67662 -0.355429 -0.144904
-0.353026 -0.353189 -0.00014341
-0.461448 -0.297467 -0.00185146
-0.528297 -0.52846 -0.0102454
-0.63883 -0.423061 -0.0100776
-0.507343 -0.257583 -0.106167
-0.59986 -0.211895 -0.0916968
-0.67662 -0.355429 -0.144904
-0.758745 -0.276321 -0.120986
-0.461448 -0.297467 -0.00185146
-0.56839 -0.235517 -0.000125741
-0.63883 -0.423061 -0.0100776
-0.743217 -0.311272 -0.00582714
-0.590779 -0.43128 -0.166218
-0.67662 -0.355429 -0.144904
-0.773283 -0.562966 -0.202993
-0.851146 -0.450952 -0.174381
-0.528297 -0.52846 -0.0102454
-0.63883 -0.423061 -0.0100776
-0.706519 -0.706695 -0.000125529
-0.820997 -0.547623 -0.0030015
-0.67662 -0.355429 -0.144904
-0.758745 -0.276321 -0.120986
-0.851146 -0.450952 -0.174381
-0.922172 -0.336894 -0.143114
-0.63883 -0.423061 -0.0100776
-0.743217 -0.311272 -0.00582714
-0.820997 -0.547623 -0.0030015
-0.923172 -0.382481 -0.000108446
-0.353088 7.13714e-05 -0.35429
-0.46151 -0.00163667 -0.298568
-0.413903 -0.117269 -0.300275
-0.507419 -0.105734 -0.258603
-0.173724 -0.0144124 -0.174684
-0.353285 -0.0140846 -0.15294
-0.294 -0.154786 -0.155425
-0.431595 -0.134054 -0.134692
-0.46151 -0.00163667 -0.298568
-0.568477 6.05036e-05 -0.23625
-0.507419 -0.105734 -0.258603
-0.599934 -0.0913357 -0.212601
-0.353285 -0.0140846 -0.15294
-0.536257 -0.0023809 -0.116209
-0.431595 -0.134054 -0.134692
-0.569778 -0.105834 -0.106255
-0.413903 -0.117269 -0.300275
-0.507419 -0.105734 -0.258603
-0.470888 -0.235522 -0.236262
-0.550197 -0.211042 -0.211782
-0.294 -0.154786 -0.155425
-0.431595 -0.134054 -0.134692
-0.413826 -0.299255 -0.117703
-0.507343 -0.257583 -0.106167
-0.507419 -0.105734 -0.258603
-0.599934 -0.0913357 -0.212601
-0.550197 -0.211042 -0.211782
-0.628826 -0.184136 -0.184734
-0.431595 -0.134054 -0.134692
-0.569778 -0.105834 -0.106255
-0.507343 -0.257583 -0.106167
-0.59986 -0.211895 -0.0916968
-0.173724 -0.0144124 -0.174684
-0.353285 -0.0140846 -0.15294
-0.294 -0.154786 -0.155425
-0.431595 -0.134054 -0.134692
0.0003166 0.000107191 -0.000227624
-0.243479 -0.0125203 -0.0128551
-0.173817 -0.174027 -0.0147275
-0.353378 -0.152282 -0.0143997
-0.353285 -0.0140846 -0.15294
-0.536257 -0.0023809 -0.116209
-0.431595 -0.134054 -0.134692
-0.569778 -0.105834 -0.106255
-0.243479 -0.0125203 -0.0128551
-0.499353 7.20722e-05 -0.00015059
-0.353378 -0.152282 -0.0143997
-0.536234 -0.115779 -0.00259376
-0.294 -0.154786 -0.155425
-0.431595 -0.134054 -0.134692
-0.413826 -0.299255 -0.117703
-0.507343 -0.257583 -0.106167
-0.173817 -0.174027 -0.0147275
-0.353378 -0.152282 -0.0143997
-0.353026 -0.353189 -0.00014341
-0.461448 -0.297467 -0.00185146
-0.431595 -0.134054 -0.134692
-0.569778 -0.105834 -0.106255
-0.507343 -0.257583 -0.106167
-0.59986 -0.211895 -0.0916968
-0.353378 -0.152282 -0.0143997
-0.536234 -0.115779 -0.00259376
-0.461448 -0.297467 -0.00185146
-0.56839 -0.235517 -0.000125741
0.353197 -2.80418e-05 0.35424
0.410826 0.117633 0.286005
0.537062 -0.0282059 0.538105
0.596406 0.13723 0.403043
0.459636 -0.00427917 0.291775
0.503224 0.10237 0.243707
0.641297 -0.030144 0.418478
0.677902 0.118451 0.329859
0.410826 0.117633 0.286005
0.470983 0.235563 0.236206
0.596406 0.13723 0.403043
0.660625 0.312127 0.312741
0.503224 0.10237 0.243707
0.548157 0.20834 0.20898
0.677902 0.118451 0.329859
0.717191 0.269573 0.270197
0.537062 -0.0282059 0.538105
0.596406 0.13723 0.403043
0.706784 -1.82328e-05 0.707768
0.757482 0.193299 0.520352
0.641297 -0.030144 0.418478
0.677902 0.118451 0.329859
0.807549 -0.0161657 0.545156
0.83126 0.161683 0.4224
0.596406 0.13723 0.403043
0.660625 0.312127 0.312741
0.757482 0.193299 0.520352
0.816101 0.408115 0.408647
0.677902 0.118451 0.329859
0.717191 0.269573 0.270197
0.83126 0.161683 0.4224
0.859511 0.346604 0.347154
0.459636 -0.00427917 0.291775
0.503224 0.10237 0.243707
0.641297 -0.030144 0.418478
0.677902 0.118451 0.329859
0.568572 -2.76386e-05 0.236202
0.598034 0.0930675 0.206373
0.753443 -0.0138451 0.304684
0.766163 0.108312 0.259356
0.503224 0.10237 0.243707
0.548157 0.20834 0.20898
0.677902 0.118451 0.329859
0.717191 0.269573 0.270197
0.598034 0.0930675 0.206373
0.62806 0.185037 0.185543
0.766163 0.108312 0.259356
0.780372 0.229415 0.22992
0.641297 -0.030144 0.418478
0.677902 0.118451 0.329859
0.807549 -0.0161657 0.545156
0.83126 0.161683 0.4224
0.753443 -0.0138451 0.304684
0.766163 0.108312 0.259356
0.923416 -2.36461e-05 0.383126
0.917061 0.143646 0.32321
0.677902 0.118451 0.329859
0.717191 0.269573 0.270197
0.83126 0.161683 0.4224
0.859511 0.346604 0.347154
0.766163 0.108312 0.259356
0.780372 0.229415 0.22992
0.917061 0.143646 0.32321
0.913455 0.286815 0.287255
0.470983 0.235563 0.236206
0.410723 0.28508 0.117967
0.660625 0.312127 0.312741
0.596304 0.402136 0.137552
0.548157 0.20834 0.20898
0.503121 0.242783 0.102704
0.717191 0.269573 0.270197
0.677799 0.328945 0.118777
0.410723 0.28508 0.117967
0.353093 0.353232 7.33518e-05
0.596304 0.402136 0.137552
0.536959 0.537097 -0.0281045
0.503121 0.242783 0.102704
[...]
POINT_DATA 8192
SCALARS A_0 double 1
LOOKUP_TABLE default
1.00087 1.00052 1.00288 1.00018 0.999564 0.99734 0.999833 0.996069 1.00052 0.997089 1.00018 0.994649 0.99734 0.994389 0.996069 0.993543 1.00288 1.00018 1.00575 1.00012 0.999833 0.996069 0.999798 0.99537 1.00018 0.994649 1.00012 0.996063 0.996069 0.993543 0.99537 0.992188 0.999564 0.99734 0.999833 0.996069 0.99835 0.996564 0.996655 0.995736 0.99734 0.994389 0.996069 0.993543 0.996564 0.995596 0.995736 0.993855 0.999833 0.996069 0.999798 0.99537 0.996655 0.995736 0.9958 0.992792 0.996069 0.993543 0.99537 0.992188 0.995736 0.993855 0.992792 0.992179 0.997089 0.996205 0.994649 0.993503 0.994389 0.994371 0.993543 0.992407 0.996205 0.996755 0.993503 0.991698 0.994371 0.994318 0.992407 0.991296 0.994649 0.993503 0.996063 0.991747 0.993543 0.992407 0.992188 0.988187 0.993503 0.991698 0.991747 0.989043 0.992407 0.991296 0.988187 0.989318 0.994389 0.994371 0.993543 0.992407 0.995596 0.995892 0.993855 0.993069 0.994371 0.994318 0.992407 0.991296 0.995892 0.994696 0.993069 0.992255 0.993543 0.992407 0.992188 0.988187 0.993855 0.993069 0.992179 0.991159 0.992407 0.991296 0.988187 0.989318 0.993069 0.992255 0.991159 0.989585 0.99835 0.996564 0.996655 0.995736 0.996728 0.995722 0.993928 0.992708 0.996564 0.995596 0.995736 0.993855 0.995722 0.995892 0.992708 0.993069 0.996655 0.995736 0.9958 0.992792 0.993928 0.992708 0.987062 0.990548 0.995736 0.993855 0.992792 0.992179 0.992708 0.993069 0.990548 0.991159 0.996728 0.995722 0.993928 0.992708 0.996379 0.99642 0.994151 0.990755 0.995722 0.995892 0.992708 0.993069 0.99642 0.994696 0.990755 0.992255 0.993928 0.992708 0.987062 0.990548 0.994151 0.990755 0.990664 0.990688 0.992708 0.993069 0.990548 0.991159 0.990755 0.992255 0.990688 0.989585 1.00087 1.00052 0.999564 0.99734 0.99983 0.998661 0.998571 0.996154 1.00052 0.997089 0.99734 0.994389 0.998661 0.996205 0.996154 0.994371 0.999564 0.99734 0.99835 0.996564 0.998571 0.996154 0.996728 0.995722 0.99734 0.994389 0.996564 0.995596 0.996154 0.994371 0.995722 0.995892 0.99983 0.998661 0.998571 0.996154 0.998819 0.998343 0.997885 0.996161 0.998661 0.996205 0.996154 0.994371 0.998343 0.996755 0.996161 0.994318 0.998571 0.996154 0.996728 0.995722 0.997885 0.996161 0.996379 0.99642 0.996154 0.994371 0.995722 0.995892 0.996161 0.994318 0.99642 0.994696 1.00134 0.999565 1.00343 0.999553 0.999572 0.997641 0.999538 0.996583 0.999565 0.997433 0.999553 0.996473 0.997641 0.997205 0.996583 0.995272 1.00343 0.999553 1.00507 0.999337 0.999538 0.996583 0.999465 0.995605 0.999553 0.996473 0.999337 0.995554 0.996583 0.995272 0.995605 0.993988 0.999572 0.997641 0.999538 0.996583 0.995802 0.994627 0.994971 0.992961 0.997641 0.997205 0.996583 0.995272 0.994627 0.995949 0.992961 0.993775 0.999538 0.996583 0.999465 0.995605 0.994971 0.992961 0.99365 0.993911 0.996583 0.995272 0.995605 0.993988 0.992961 0.993775 0.993911 0.989297 0.997433 0.997217 0.996473 0.992058 0.997205 0.995827 0.995272 0.991594 0.997217 0.99778 0.992058 0.993627 0.995827 0.994231 0.991594 0.99125 0.996473 0.992058 0.995554 0.991579 0.995272 0.991594 0.993988 0.99229 0.992058 0.993627 0.991579 0.993439 0.991594 0.99125 0.99229 0.986499 0.997205 0.995827 0.995272 0.991594 0.995949 0.996031 0.993775 0.992573 0.995827 0.994231 0.991594 0.99125 0.996031 0.996541 0.992573 0.993116 0.995272 0.991594 0.993988 0.99229 0.993775 0.992573 0.989297 0.991586 0.991594 0.99125 0.99229 0.986499 0.992573 0.993116 0.991586 0.994337 0.995802 0.994627 0.994971 0.992961 0.995827 0.995136 0.993834 0.993371 0.994627 0.995949 0.992961 0.993775 0.995136 0.996031 0.993371 0.992573 0.994971 0.992961 0.99365 0.993911 0.993834 0.993371 0.993773 0.992961 0.992961 0.993775 0.993911 0.989297 0.993371 0.992573 0.992961 0.991586 0.995827 0.995136 0.993834 0.993371 0.996277 0.996577 0.99219 0.99223 0.995136 0.996031 0.993371 0.992573 0.996577 0.996541 0.99223 0.993116 0.993834 0.993371 0.993773 0.992961 0.99219 0.99223 0.989696 0.989914 0.993371 0.992573 0.992961 0.991586 0.99223 0.993116 0.989914 0.994337 1.00134 0.999565 0.999572 0.997641 0.999887 0.998227 0.998064 0.997362 0.999565 0.997433 0.997641 0.997205 0.998227 0.997217 0.997362 0.995827 0.999572 0.997641 0.995802 0.994627 0.998064 0.997362 0.995827 0.995136 0.997641 0.997205 0.994627 0.995949 0.997362 0.995827 0.995136 0.996031 0.999887 0.998227 0.998064 0.997362 0.998819 1.00116 0.999367 0.995768 0.998227 0.997217 0.997362 0.995827 1.00116 0.99778 0.995768 0.994231 0.998064 0.997362 0.995827 0.995136 0.999367 0.995768 0.996277 0.996577 0.997362 0.995827 0.995136 0.996031 0.995768 0.994231 0.996577 0.996541 1.00731 1.0079 1.00988 1.01359 1.00708 1.00823 1.01494 1.01385 1.0079 1.00643 1.01359 1.01238 1.00823 1.00662 1.01385 1.01017 1.00988 1.01359 1.01246 1.01631 1.01494 1.01385 1.01184 1.0118 1.01359 1.01238 1.01631 1.01095 1.01385 1.01017 1.0118 1.01254 1.00708 1.00823 1.01494 1.01385 1.00741 1.00788 1.01427 1.01437 1.00823 1.00662 1.01385 1.01017 1.00788 1.00776 1.01437 1.00807 1.01494 1.01385 1.01184 1.0118 1.01427 1.01437 1.00818 1.01527 1.01385 1.01017 1.0118 1.01254 1.01437 1.00807 1.01527 1.01036 1.00643 1.00452 1.01238 1.00799 1.00662 1.00559 1.01017 1.00902 1.00452 1.00199 1.00799 1.00235 1.00559 1.00258 1.00902 1.00747 1.01238 1.00799 1.01095 1.00991 1.01017 1.00902 1.01254 1.01342 1.00799 1.00235 1.00991 1.00614 1.00902 1.00747 1.01342 1.00602 1.00662 1.00559 1.01017 1.00902 1.00776 1.00788 1.00807 1.00747 1.00559 1.00258 1.00902 1.00747 1.00788 1.00481 1.00747 1.00848 1.01017 1.00902 1.01254 1.01342 1.00807 1.00747 1.01036 1.00946 1.00902 1.00747 1.01342 1.00602 1.00747 1.00848 1.00946 1.00765 1.00741 1.00788 1.01427 1.01437 1.00536 1.0052 1.00814 1.01066 1.00788 1.00776 1.01437 1.00807 1.0052 1.00788 1.01066 1.00747 1.01427 1.01437 1.00818 1.01527 1.00814 1.01066 1.01152 1.01265 1.01437 1.00807 1.01527 1.01036 1.01066 1.00747 1.01265 1.00946 1.00536 1.0052 1.00814 1.01066 1.00142 1.00276 1.00328 1.00402 1.0052 1.00788 1.01066 1.00747 1.00276 1.00481 1.00402 1.00848 1.00814 1.01066 1.01152 1.01265 1.00328 1.00402 1.00581 1.0066 1.01066 1.00747 1.01265 1.00946 1.00402 1.00848 1.0066 1.00765 1.00731 1.0079 1.00708 1.00823 0.999393 1.00158 1.00262 1.00238 1.0079 1.00643 1.00823 1.00662 1.00158 1.00452 1.00238 1.00559 1.00708 1.00823 1.00741 1.00788 1.00262 1.00238 1.00536 1.0052 1.00823 1.00662 1.00788 1.00776 1.00238 1.00559 1.0052 1.00788 0.999393 1.00158 1.00262 1.00238 0.998819 0.996773 0.998172 1.00097 1.00158 1.00452 1.00238 1.00559 0.996773 1.00199 1.00097 1.00258 1.00262 1.00238 1.00536 1.0052 0.998172 1.00097 1.00142 1.00276 1.00238 1.00559 1.0052 1.00788 1.00097 1.00258 1.00276 1.00481 1.00859 1.00812 1.01404 1.01364 1.00726 1.0086 1.01034 1.00824 1.00812 1.00929 1.01364 1.01106 1.0086 1.01154 1.00824 1.01493 1.01404 1.01364 1.02189 1.01827 1.01034 1.00824 1.0225 1.0207 1.01364 1.01106 1.01827 1.00997 1.00824 1.01493 1.0207 1.01189 1.00726 1.0086 1.01034 1.00824 1.00762 1.00783 1.01018 1.01155 1.0086 1.01154 1.00824 1.01493 1.00783 1.00898 1.01155 1.01536 1.01034 1.00824 1.0225 1.0207 1.01018 1.01155 1.01506 1.01718 1.00824 1.01493 1.0207 1.01189 1.01155 1.01536 1.01718 1.01846 1.00929 1.00556 1.01106 1.00837 1.01154 1.00623 1.01493 1.00634 1.00556 1.00119 1.00837 1.00355 1.00623 1.00241 1.00634 1.00715 1.01106 1.00837 1.00997 1.01586 1.01493 1.00634 1.01189 1.01284 1.00837 1.00355 1.01586 1.00362 1.00634 1.00715 1.01284 1.00695 1.01154 1.00623 1.01493 1.00634 1.00898 1.00676 1.01536 1.01074 1.00623 1.00241 1.00634 1.00715 1.00676 1.00463 1.01074 1.00786 1.01493 1.00634 1.01189 1.01284 1.01536 1.01074 1.01846 1.0177 1.00634 1.00715 1.01284 1.00695 1.01074 1.00786 1.0177 1.01482 1.00762 1.00783 1.01018 1.01155 1.00469 1.00564 1.00885 1.00757 1.00783 1.00898 1.01155 1.01536 1.00564 1.00676 1.00757 1.01074 1.01018 1.01155 1.01506 1.01718 1.00885 1.00757 1.00309 1.01643 1.01155 1.01536 1.01718 1.01846 1.00757 1.01074 1.01643 1.0177 1.00469 1.00564 1.00885 1.00757 1.00046 1.00219 1.00281 1.00573 1.00564 1.00676 1.00757 1.01074 1.00219 1.00463 1.00573 1.00786 1.00885 1.00757 1.00309 1.01643 1.00281 1.00573 1.00389 1.00435 1.00757 1.01074 1.01643 1.0177 1.00573 1.00786 1.00435 1.01482 1.00859 1.00812 1.00726 1.0086 0.999814 1.00184 1.00094 1.00163 1.00812 1.00929 1.0086 1.01154 1.00184 1.00556 1.00163 1.00623 1.00726 1.0086 1.00762 1.00783 1.00094 1.00163 1.00469 1.00564 1.0086 1.01154 1.00783 1.00898 1.00163 1.00623 1.00564 1.00676 0.999814 1.00184 1.00094 1.00163 0.998819 0.99788 0.999175 0.999877 1.00184 1.00556 1.00163 1.00623 0.99788 1.00119 0.999877 1.00241 1.00094 1.00163 1.00469 1.00564 0.999175 0.999877 1.00046 1.00219 1.00163 1.00623 1.00564 1.00676 0.999877 1.00241 1.00219 1.00463 1.00145 0.999774 1.0026 0.999545 0.999579 0.997399 0.999303 0.99591 0.999774 0.999065 0.999545 0.99707 0.997399 0.996635 0.99591 0.995366 1.0026 0.999545 1.00537 0.999875 0.999303 0.99591 0.99943 0.997404 0.999545 0.99707 0.999875 0.996216 0.99591 0.995366 0.997404 0.996974 0.999579 0.997399 0.999303 0.99591 0.996831 0.995483 0.995683 0.992876 0.997399 0.996635 0.99591 0.995366 0.995483 0.995291 0.992876 0.992378 0.999303 0.99591 0.99943 0.997404 0.995683 0.992876 0.993574 0.990378 0.99591 0.995366 0.997404 0.996974 0.992876 0.992378 0.990378 0.99007 0.999065 0.995972 0.99707 0.993425 0.996635 0.995968 0.995366 0.992843 0.995972 0.996027 0.993425 0.990555 0.995968 0.995796 0.992843 0.991457 0.99707 0.993425 0.996216 0.991439 0.995366 0.992843 0.996974 0.995421 0.993425 0.990555 0.991439 0.99014 0.992843 0.991457 0.995421 0.991064 0.996635 0.995968 0.995366 0.992843 0.995291 0.995154 0.992378 0.991329 0.995968 0.995796 0.992843 0.991457 0.995154 0.996243 0.991329 0.990768 0.995366 0.992843 0.996974 0.995421 0.992378 0.991329 0.99007 0.987126 0.992843 0.991457 0.995421 0.991064 0.991329 0.990768 0.987126 0.993119 0.996831 0.995483 0.995683 0.992876 0.995085 0.994502 0.992928 0.990916 0.995483 0.995291 0.992876 0.992378 0.994502 0.995154 0.990916 0.991329 0.995683 0.992876 0.993574 0.990378 0.992928 0.990916 0.989347 0.988862 0.992876 0.992378 0.990378 0.99007 0.990916 0.991329 0.988862 0.987126 0.995085 0.994502 0.992928 0.990916 0.995012 0.995367 0.992548 0.992284 0.994502 0.995154 0.990916 0.991329 0.995367 0.996243 0.992284 0.990768 0.992928 0.990916 0.989347 0.988862 0.992548 0.992284 0.991037 0.987968 0.990916 0.991329 0.988862 0.987126 0.992284 0.990768 0.987968 0.993119 1.00145 0.999774 0.999579 0.997399 0.998717 0.998519 0.997779 0.99665 0.999774 0.999065 0.997399 0.996635 0.998519 0.995972 0.99665 0.995968 0.999579 0.997399 0.996831 0.995483 0.997779 0.99665 0.995085 0.994502 0.997399 0.996635 0.995483 0.995291 0.99665 0.995968 0.994502 0.995154 0.998717 0.998519 0.997779 0.99665 0.998819 0.999304 0.998154 0.996771 0.998519 0.995972 0.99665 0.995968 0.999304 0.996027 0.996771 0.995796 0.997779 0.99665 0.995085 0.994502 0.998154 0.996771 0.995012 0.995367 0.99665 0.995968 0.994502 0.995154 0.996771 0.995796 0.995367 0.996243 0.997161 0.997161 0.993957 0.994373 0.995895 0.995974 0.992754 0.994643 0.997161 0.997267 0.994373 0.994359 0.995974 0.995893 0.994643 0.994749 0.993957 0.994373 0.988107 0.994735 0.992754 0.994643 0.989655 0.992387 0.994373 0.994359 0.994735 0.995492 0.994643 0.994749 0.992387 0.996523 0.995895 0.995974 0.992754 0.994643 0.996872 0.996058 0.992524 0.995168 0.995974 0.995893 0.994643 0.994749 0.996058 0.995371 0.995168 0.994009 0.992754 0.994643 0.989655 0.992387 0.992524 0.995168 0.986841 0.994223 0.994643 0.994749 0.992387 0.996523 0.995168 0.994009 0.994223 0.994313 0.997267 0.999303 0.994359 1.00091 0.995893 0.997196 0.994749 0.998375 0.999303 1.00047 1.00091 1.00386 0.997196 0.998948 0.998375 1.00095 0.994359 1.00091 0.995492 1.00046 0.994749 0.998375 0.996523 0.996519 1.00091 1.00386 1.00046 1.00518 0.998375 1.00095 0.996519 1.00002 0.995893 0.997196 0.994749 0.998375 0.995371 0.994969 0.994009 0.993575 0.997196 0.998948 0.998375 1.00095 0.994969 0.995099 0.993575 0.995291 0.994749 0.998375 0.996523 0.996519 0.994009 0.993575 0.994313 0.990452 0.998375 1.00095 0.996519 1.00002 0.993575 0.995291 0.990452 0.993344 0.996872 0.996058 0.992524 0.995168 0.997307 0.996463 0.992115 0.992019 0.996058 0.995371 0.995168 0.994009 0.996463 0.994969 0.992019 0.993575 0.992524 0.995168 0.986841 0.994223 0.992115 0.992019 0.991385 0.991004 0.995168 0.994009 0.994223 0.994313 0.992019 0.993575 0.991004 0.990452 0.997307 0.996463 0.992115 0.992019 0.997241 0.996987 0.994537 0.992828 0.996463 0.994969 0.992019 0.993575 0.996987 0.995099 0.992828 0.995291 0.992115 0.992019 0.991385 0.991004 0.994537 0.992828 0.99044 0.989939 0.992019 0.993575 0.991004 0.990452 0.992828 0.995291 0.989939 0.993344 0.997161 0.997161 0.995895 0.995974 0.999926 0.99925 0.999116 0.998248 0.997161 0.997267 0.995974 0.995893 0.99925 0.999303 0.998248 0.997196 0.995895 0.995974 0.996872 0.996058 0.999116 0.998248 0.997307 0.996463 0.995974 0.995893 0.996058 0.995371 0.998248 0.997196 0.996463 0.994969 0.999926 0.99925 0.999116 0.998248 0.998819 1.00075 1.00128 0.999699 0.99925 0.999303 0.998248 0.997196 1.00075 1.00047 0.999699 0.998948 0.999116 0.998248 0.997307 0.996463 1.00128 0.999699 0.997241 0.996987 0.998248 0.997196 0.996463 0.994969 0.999699 0.998948 0.996987 0.995099 0.997161 0.995895 0.993957 0.992754 0.995399 0.994373 0.993729 0.989819 0.995895 0.996872 0.992754 0.992524 0.994373 0.995634 0.989819 0.99256 0.993957 0.992754 0.988107 0.989655 0.993729 0.989819 0.994853 0.993771 0.992754 0.992524 0.989655 0.986841 0.989819 0.99256 0.993771 0.990659 0.995399 0.994373 0.993729 0.989819 0.997041 0.996062 0.996313 0.994422 0.994373 0.995634 0.989819 0.99256 0.996062 0.995776 0.994422 0.992177 0.993729 0.989819 0.994853 0.993771 0.996313 0.994422 0.993988 0.992942 0.989819 0.99256 0.993771 0.990659 0.994422 0.992177 0.992942 0.991727 0.996872 0.997307 0.992524 0.992115 0.995634 0.995146 0.99256 0.995833 0.997307 0.997241 0.992115 0.994537 0.995146 0.996988 0.995833 0.99392 0.992524 0.992115 0.986841 0.991385 0.99256 0.995833 0.990659 0.993493 0.992115 0.994537 0.991385 0.99044 0.995833 0.99392 0.993493 0.992315 0.995634 0.995146 0.99256 0.995833 0.995776 0.996016 0.992177 0.993061 0.995146 0.996988 0.995833 0.99392 0.996016 0.995544 0.993061 0.995279 0.99256 0.995833 0.990659 0.993493 0.992177 0.993061 0.991727 0.991738 0.995833 0.99392 0.993493 0.992315 0.993061 0.995279 0.991738 0.990645 0.997041 0.996062 0.996313 0.994422 0.998944 0.99749 0.999515 0.996578 0.996062 0.995776 0.994422 0.992177 0.99749 0.996016 0.996578 0.993061 0.996313 0.994422 0.993988 0.992942 0.999515 0.996578 1.0005 0.994894 0.994422 0.992177 0.992942 0.991727 0.996578 0.993061 0.994894 0.991738 0.998944 0.99749 0.999515 0.996578 1.00142 0.997952 1.00328 0.998504 0.99749 0.996016 0.996578 0.993061 0.997952 0.995544 0.998504 0.995279 0.999515 0.996578 1.0005 0.994894 1.00328 0.998504 1.00581 0.998758 0.996578 0.993061 0.994894 0.991738 0.998504 0.995279 0.998758 0.990645 0.997161 0.995895 0.995399 0.994373 0.999926 0.999116 0.998135 0.997213 0.995895 0.996872 0.994373 0.995634 0.999116 0.997307 0.997213 0.995146 0.995399 0.994373 0.997041 0.996062 0.998135 0.997213 0.998944 0.99749 0.994373 0.995634 0.996062 0.995776 0.997213 0.995146 0.99749 0.996016 0.999926 0.999116 0.998135 0.997213 0.998819 1.00128 0.998172 0.996842 0.999116 0.997307 0.997213 0.995146 1.00128 0.997241 0.996842 0.996988 0.998135 0.997213 0.998944 0.99749 0.998172 0.996842 1.00142 0.997952 0.997213 0.995146 0.99749 0.996016 0.996842 0.996988 0.997952 0.995544 1.00134 0.999572 1.00343 0.999538 1.00057 0.998567 1.00084 0.99712 0.999572 0.995802 0.999538 0.994971 0.998567 0.996326 0.99712 0.994897 1.00343 0.999538 1.00507 0.999465 1.00084 0.99712 1.00075 0.997687 0.999538 0.994971 0.999465 0.99365 0.99712 0.994897 0.997687 0.997286 1.00057 0.998567 1.00084 0.99712 0.997672 0.996603 0.995119 0.994767 0.998567 0.996326 0.99712 0.994897 0.996603 0.994686 0.994767 0.992805 1.00084 0.99712 1.00075 0.997687 0.995119 0.994767 0.991487 0.994059 0.99712 0.994897 0.997687 0.997286 0.994767 0.992805 0.994059 0.993047 0.995802 0.995827 0.994971 0.993834 0.996326 0.997145 0.994897 0.992507 0.995827 0.996277 0.993834 0.99219 0.997145 0.996474 0.992507 0.993637 0.994971 0.993834 0.99365 0.993773 0.994897 0.992507 0.997286 0.98818 0.993834 0.99219 0.993773 0.989696 0.992507 0.993637 0.98818 0.99248 0.996326 0.997145 0.994897 0.992507 0.994686 0.995146 0.992805 0.990842 0.997145 0.996474 0.992507 0.993637 0.995146 0.996028 0.990842 0.993322 0.994897 0.992507 0.997286 0.98818 0.992805 0.990842 0.993047 0.992629 0.992507 0.993637 0.98818 0.99248 0.990842 0.993322 0.992629 0.986664 0.997672 0.996603 0.995119 0.994767 0.996755 0.994895 0.993792 0.991658 0.996603 0.994686 0.994767 0.992805 0.994895 0.995146 0.991658 0.990842 0.995119 0.994767 0.991487 0.994059 0.993792 0.991658 0.995863 0.991826 0.994767 0.992805 0.994059 0.993047 0.991658 0.990842 0.991826 0.992629 0.996755 0.994895 0.993792 0.991658 0.996027 0.996117 0.990555 0.993726 0.994895 0.995146 0.991658 0.990842 0.996117 0.996028 0.993726 0.993322 0.993792 0.991658 0.995863 0.991826 0.990555 0.993726 0.99014 0.990956 0.991658 0.990842 0.991826 0.992629 0.993726 0.993322 0.990956 0.986664 1.00134 0.999572 1.00057 0.998567 0.999887 0.998064 0.999801 0.998011 0.999572 0.995802 0.998567 0.996326 0.998064 0.995827 0.998011 0.997145 1.00057 0.998567 0.997672 0.996603 0.999801 0.998011 0.996755 0.994895 0.998567 0.996326 0.996603 0.994686 0.998011 0.997145 0.994895 0.995146 0.999887 0.998064 0.999801 0.998011 0.998819 0.999367 0.999304 0.999046 0.998064 0.995827 0.998011 0.997145 0.999367 0.996277 0.999046 0.996474 0.999801 0.998011 0.996755 0.994895 0.999304 0.999046 0.996027 0.996117 0.998011 0.997145 0.994895 0.995146 0.999046 0.996474 0.996117 0.996028 1.00047 0.999647 1.00386 1.00113 0.998948 0.997237 1.00095 0.998698 0.999647 0.997425 1.00113 0.996935 0.997237 0.994318 0.998698 0.994484 1.00386 1.00113 1.00518 1.0005 1.00095 0.998698 1.00002 0.99688 1.00113 0.996935 1.0005 0.995328 0.998698 0.994484 0.99688 0.992126 0.998948 0.997237 1.00095 0.998698 0.995099 0.994343 0.995291 0.993966 0.997237 0.994318 0.998698 0.994484 0.994343 0.994245 0.993966 0.993774 1.00095 0.998698 1.00002 0.99688 0.995291 0.993966 0.993344 0.99138 0.998698 0.994484 0.99688 0.992126 0.993966 0.993774 0.99138 0.993785 0.99778 0.998707 0.993627 0.992711 0.996767 0.996281 0.994863 0.993992 0.998707 0.995293 0.992711 0.992782 0.996281 0.997304 0.993992 0.995142 0.993627 0.992711 0.993439 0.99088 0.994863 0.993992 0.992616 0.995894 0.992711 0.992782 0.99088 0.988367 0.993992 0.995142 0.995894 0.995897 0.996767 0.996281 0.994863 0.993992 0.997425 0.994318 0.996935 0.994484 0.996281 0.997304 0.993992 0.995142 0.994318 0.994245 0.994484 0.993774 0.994863 0.993992 0.992616 0.995894 0.996935 0.994484 0.995328 0.992126 0.993992 0.995142 0.995894 0.995897 0.994484 0.993774 0.992126 0.993785 0.997241 0.996987 0.994537 0.992828 0.99785 0.996926 0.992585 0.994375 0.996987 0.995099 0.992828 0.995291 0.996926 0.994343 0.994375 0.993966 0.994537 0.992828 0.99044 0.989939 0.992585 0.994375 0.991805 0.99158 0.992828 0.995291 0.989939 0.993344 0.994375 0.993966 0.99158 0.99138 0.99785 0.996926 0.992585 0.994375 0.995293 0.997304 0.992782 0.995142 0.996926 0.994343 0.994375 0.993966 0.997304 0.994245 0.995142 0.993774 0.992585 0.994375 0.991805 0.99158 0.992782 0.995142 0.988367 0.995897 0.994375 0.993966 0.99158 0.99138 0.995142 0.993774 0.995897 0.993785 0.998819 1.00075 1.00128 0.999699 1.00116 0.999355 1.00081 0.999218 1.00075 1.00047 0.999699 0.998948 0.999355 0.999647 0.999218 0.997237 1.00128 0.999699 0.997241 0.996987 1.00081 0.999218 0.99785 0.996926 0.999699 0.998948 0.996987 0.995099 0.999218 0.997237 0.996926 0.994343 1.00116 0.999355 1.00081 0.999218 0.99778 0.996767 0.998707 0.996281 0.999355 0.999647 0.999218 0.997237 0.996767 0.997425 0.996281 0.994318 1.00081 0.999218 0.99785 0.996926 0.998707 0.996281 0.995293 0.997304 0.999218 0.997237 0.996926 0.994343 0.996281 0.994