# vtk DataFile Version 3.0
#This file was generated by the deal.II library on 2025/4/16 at 17:54:49
ASCII
DATASET UNSTRUCTURED_GRID

POINTS 8192 double
-0.35332 3.47278e-05 -0.353921
-0.461742 -0.00167332 -0.298199
-0.528591 -0.0100672 -0.529192
-0.639124 -0.00989942 -0.423793
-0.414134 -0.117306 -0.299906
-0.507651 -0.10577 -0.258234
-0.591087 -0.165822 -0.431932
-0.676928 -0.144508 -0.35608
-0.461742 -0.00167332 -0.298199
-0.568756 2.92707e-05 -0.235975
-0.639124 -0.00989942 -0.423793
-0.743583 -0.00567213 -0.311731
-0.507651 -0.10577 -0.258234
-0.600213 -0.0913669 -0.212326
-0.676928 -0.144508 -0.35608
-0.759097 -0.120656 -0.276752
-0.528591 -0.0100672 -0.529192
-0.639124 -0.00989942 -0.423793
-0.706884 2.83076e-05 -0.707461
-0.821362 -0.00284766 -0.548389
-0.591087 -0.165822 -0.431932
-0.676928 -0.144508 -0.35608
-0.773638 -0.202649 -0.563621
-0.851501 -0.174037 -0.451607
-0.639124 -0.00989942 -0.423793
-0.743583 -0.00567213 -0.311731
-0.821362 -0.00284766 -0.548389
-0.923597 2.57261e-05 -0.382932
-0.676928 -0.144508 -0.35608
-0.759097 -0.120656 -0.276752
-0.851501 -0.174037 -0.451607
-0.922558 -0.142827 -0.33731
-0.414134 -0.117306 -0.299906
-0.507651 -0.10577 -0.258234
-0.591087 -0.165822 -0.431932
-0.676928 -0.144508 -0.35608
-0.471145 -0.235613 -0.235981
-0.550455 -0.211133 -0.211501
-0.644936 -0.320026 -0.320395
-0.70855 -0.279049 -0.279418
-0.507651 -0.10577 -0.258234
-0.600213 -0.0913669 -0.212326
-0.676928 -0.144508 -0.35608
-0.759097 -0.120656 -0.276752
-0.550455 -0.211133 -0.211501
-0.629118 -0.184214 -0.184512
-0.70855 -0.279049 -0.279418
-0.770093 -0.23655 -0.236848
-0.591087 -0.165822 -0.431932
-0.676928 -0.144508 -0.35608
-0.773638 -0.202649 -0.563621
-0.851501 -0.174037 -0.451607
-0.644936 -0.320026 -0.320395
-0.70855 -0.279049 -0.279418
-0.824781 -0.399479 -0.399822
-0.87136 -0.34273 -0.343074
-0.676928 -0.144508 -0.35608
-0.759097 -0.120656 -0.276752
-0.851501 -0.174037 -0.451607
-0.922558 -0.142827 -0.33731
-0.70855 -0.279049 -0.279418
-0.770093 -0.23655 -0.236848
-0.87136 -0.34273 -0.343074
-0.914602 -0.285363 -0.285638
-0.568756 2.92707e-05 -0.235975
-0.536569 -0.00241295 -0.116029
-0.743583 -0.00567213 -0.311731
-0.74905 -0.0104254 -0.159142
-0.600213 -0.0913669 -0.212326
-0.57009 -0.105866 -0.106075
-0.759097 -0.120656 -0.276752
-0.757282 -0.142354 -0.142563
-0.536569 -0.00241295 -0.116029
-0.499676 3.52212e-05 -7.47752e-05
-0.74905 -0.0104254 -0.159142
-0.74536 -0.00990607 -0.0100161
-0.57009 -0.105866 -0.106075
-0.536557 -0.115816 -0.00251795
-0.757282 -0.142354 -0.142563
-0.749039 -0.158929 -0.0105304
-0.743583 -0.00567213 -0.311731
-0.74905 -0.0104254 -0.159142
-0.923597 2.57261e-05 -0.382932
-0.969068 -0.00330012 -0.190794
-0.759097 -0.120656 -0.276752
-0.757282 -0.142354 -0.142563
-0.922558 -0.142827 -0.33731
-0.950907 -0.169882 -0.170066
-0.74905 -0.0104254 -0.159142
-0.74536 -0.00990607 -0.0100161
-0.969068 -0.00330012 -0.190794
-0.999637 3.68257e-05 -6.44253e-05
-0.757282 -0.142354 -0.142563
-0.749039 -0.158929 -0.0105304
-0.950907 -0.169882 -0.170066
-0.969038 -0.190603 -0.00339421
-0.600213 -0.0913669 -0.212326
-0.57009 -0.105866 -0.106075
-0.759097 -0.120656 -0.276752
-0.757282 -0.142354 -0.142563
-0.629118 -0.184214 -0.184512
-0.600176 -0.211975 -0.091546
-0.770093 -0.23655 -0.236848
-0.759061 -0.276401 -0.120835
-0.57009 -0.105866 -0.106075
-0.536557 -0.115816 -0.00251795
-0.757282 -0.142354 -0.142563
-0.749039 -0.158929 -0.0105304
-0.600176 -0.211975 -0.091546
-0.568713 -0.23561 -6.24963e-05
-0.759061 -0.276401 -0.120835
-0.74354 -0.311366 -0.0057639
-0.759097 -0.120656 -0.276752
-0.757282 -0.142354 -0.142563
-0.922558 -0.142827 -0.33731
-0.950907 -0.169882 -0.170066
-0.770093 -0.23655 -0.236848
-0.759061 -0.276401 -0.120835
-0.914602 -0.285363 -0.285638
-0.922507 -0.336978 -0.142983
-0.757282 -0.142354 -0.142563
-0.749039 -0.158929 -0.0105304
-0.950907 -0.169882 -0.170066
-0.969038 -0.190603 -0.00339421
-0.759061 -0.276401 -0.120835
-0.74354 -0.311366 -0.0057639
-0.922507 -0.336978 -0.142983
-0.923525 -0.382583 -5.38683e-05
-0.471145 -0.235613 -0.235981
-0.550455 -0.211133 -0.211501
-0.644936 -0.320026 -0.320395
-0.70855 -0.279049 -0.279418
-0.414096 -0.299398 -0.117521
-0.507613 -0.257725 -0.105986
-0.591049 -0.431423 -0.166037
-0.67689 -0.355571 -0.144723
-0.550455 -0.211133 -0.211501
-0.629118 -0.184214 -0.184512
-0.70855 -0.279049 -0.279418
-0.770093 -0.23655 -0.236848
-0.507613 -0.257725 -0.105986
-0.600176 -0.211975 -0.091546
-0.67689 -0.355571 -0.144723
-0.759061 -0.276401 -0.120835
-0.644936 -0.320026 -0.320395
-0.70855 -0.279049 -0.279418
-0.824781 -0.399479 -0.399822
-0.87136 -0.34273 -0.343074
-0.591049 -0.431423 -0.166037
-0.67689 -0.355571 -0.144723
-0.773571 -0.563117 -0.202835
-0.851434 -0.451103 -0.174223
-0.70855 -0.279049 -0.279418
-0.770093 -0.23655 -0.236848
-0.87136 -0.34273 -0.343074
-0.914602 -0.285363 -0.285638
-0.67689 -0.355571 -0.144723
-0.759061 -0.276401 -0.120835
-0.851434 -0.451103 -0.174223
-0.922507 -0.336978 -0.142983
-0.414096 -0.299398 -0.117521
-0.507613 -0.257725 -0.105986
-0.591049 -0.431423 -0.166037
-0.67689 -0.355571 -0.144723
-0.353289 -0.353371 -7.15622e-05
-0.461711 -0.29765 -0.00177961
-0.528561 -0.528643 -0.0101735
-0.639093 -0.423244 -0.0100057
-0.507613 -0.257725 -0.105986
-0.600176 -0.211975 -0.091546
-0.67689 -0.355571 -0.144723
-0.759061 -0.276401 -0.120835
-0.461711 -0.29765 -0.00177961
-0.568713 -0.23561 -6.24963e-05
-0.639093 -0.423244 -0.0100057
-0.74354 -0.311366 -0.0057639
-0.591049 -0.431423 -0.166037
-0.67689 -0.355571 -0.144723
-0.773571 -0.563117 -0.202835
-0.851434 -0.451103 -0.174223
-0.528561 -0.528643 -0.0101735
-0.639093 -0.423244 -0.0100057
-0.706812 -0.706901 -6.26392e-05
-0.82129 -0.54783 -0.00293861
-0.67689 -0.355571 -0.144723
-0.759061 -0.276401 -0.120835
-0.851434 -0.451103 -0.174223
-0.922507 -0.336978 -0.142983
-0.639093 -0.423244 -0.0100057
-0.74354 -0.311366 -0.0057639
-0.82129 -0.54783 -0.00293861
-0.923525 -0.382583 -5.38683e-05
-0.35332 3.47278e-05 -0.353921
-0.461742 -0.00167332 -0.298199
-0.414134 -0.117306 -0.299906
-0.507651 -0.10577 -0.258234
-0.173928 -0.014457 -0.174409
-0.353489 -0.0141292 -0.152664
-0.294204 -0.154831 -0.155149
-0.431799 -0.134098 -0.134416
-0.461742 -0.00167332 -0.298199
-0.568756 2.92707e-05 -0.235975
-0.507651 -0.10577 -0.258234
-0.600213 -0.0913669 -0.212326
-0.353489 -0.0141292 -0.152664
-0.536569 -0.00241295 -0.116029
-0.431799 -0.134098 -0.134416
-0.57009 -0.105866 -0.106075
-0.414134 -0.117306 -0.299906
-0.507651 -0.10577 -0.258234
-0.471145 -0.235613 -0.235981
-0.550455 -0.211133 -0.211501
-0.294204 -0.154831 -0.155149
-0.431799 -0.134098 -0.134416
-0.414096 -0.299398 -0.117521
-0.507613 -0.257725 -0.105986
-0.507651 -0.10577 -0.258234
-0.600213 -0.0913669 -0.212326
-0.550455 -0.211133 -0.211501
-0.629118 -0.184214 -0.184512
-0.431799 -0.134098 -0.134416
-0.57009 -0.105866 -0.106075
-0.507613 -0.257725 -0.105986
-0.600176 -0.211975 -0.091546
-0.173928 -0.014457 -0.174409
-0.353489 -0.0141292 -0.152664
-0.294204 -0.154831 -0.155149
-0.431799 -0.134098 -0.134416
0.000159123 5.28567e-05 -0.000113593
-0.243637 -0.0125747 -0.0127411
-0.173975 -0.174081 -0.0146135
-0.353535 -0.152336 -0.0142857
-0.353489 -0.0141292 -0.152664
-0.536569 -0.00241295 -0.116029
-0.431799 -0.134098 -0.134416
-0.57009 -0.105866 -0.106075
-0.243637 -0.0125747 -0.0127411
-0.499676 3.52212e-05 -7.47752e-05
-0.353535 -0.152336 -0.0142857
-0.536557 -0.115816 -0.00251795
-0.294204 -0.154831 -0.155149
-0.431799 -0.134098 -0.134416
-0.414096 -0.299398 -0.117521
-0.507613 -0.257725 -0.105986
-0.173975 -0.174081 -0.0146135
-0.353535 -0.152336 -0.0142857
-0.353289 -0.353371 -7.15622e-05
-0.461711 -0.29765 -0.00177961
-0.431799 -0.134098 -0.134416
-0.57009 -0.105866 -0.106075
-0.507613 -0.257725 -0.105986
-0.600176 -0.211975 -0.091546
-0.353535 -0.152336 -0.0142857
-0.536557 -0.115816 -0.00251795
-0.461711 -0.29765 -0.00177961
-0.568713 -0.23561 -6.24963e-05
0.353376 -1.42874e-05 0.353896
0.411005 0.117647 0.285661
0.537241 -0.0281921 0.537761
0.596585 0.137244 0.402699
0.459816 -0.00426542 0.291431
0.503403 0.102384 0.243363
0.641477 -0.0301302 0.418134
0.678081 0.118465 0.329515
0.411005 0.117647 0.285661
0.471195 0.235632 0.235953
0.596585 0.137244 0.402699
0.660837 0.312196 0.312488
0.503403 0.102384 0.243363
0.548369 0.208409 0.208727
0.678081 0.118465 0.329515
0.717403 0.269642 0.269945
0.537241 -0.0281921 0.537761
0.596585 0.137244 0.402699
0.706946 -9.36989e-06 0.707437
0.757644 0.193308 0.52002
0.641477 -0.0301302 0.418134
0.678081 0.118465 0.329515
0.807711 -0.0161569 0.544824
0.831422 0.161692 0.422068
0.596585 0.137244 0.402699
0.660837 0.312196 0.312488
0.757644 0.193308 0.52002
0.816312 0.40818 0.408423
0.678081 0.118465 0.329515
0.717403 0.269642 0.269945
0.831422 0.161692 0.422068
0.859722 0.34667 0.34693
0.459816 -0.00426542 0.291431
0.503403 0.102384 0.243363
0.641477 -0.0301302 0.418134
0.678081 0.118465 0.329515
0.568805 -1.40654e-05 0.235951
0.598267 0.0930811 0.206123
0.753676 -0.0138316 0.304433
0.766396 0.108325 0.259105
0.503403 0.102384 0.243363
0.548369 0.208409 0.208727
0.678081 0.118465 0.329515
0.717403 0.269642 0.269945
0.598267 0.0930811 0.206123
0.628311 0.185097 0.185348
0.766396 0.108325 0.259105
0.780623 0.229476 0.229725
0.641477 -0.0301302 0.418134
0.678081 0.118465 0.329515
0.807711 -0.0161569 0.544824
0.831422 0.161692 0.422068
0.753676 -0.0138316 0.304433
0.766396 0.108325 0.259105
0.923649 -1.20576e-05 0.382904
0.917293 0.143658 0.322987
0.678081 0.118465 0.329515
0.717403 0.269642 0.269945
0.831422 0.161692 0.422068
0.859722 0.34667 0.34693
0.766396 0.108325 0.259105
0.780623 0.229476 0.229725
0.917293 0.143658 0.322987
0.913713 0.286876 0.287092
0.471195 0.235632 0.235953
0.410954 0.285199 0.117814
0.660837 0.312196 0.312488
0.596535 0.402255 0.137398
0.548369 0.208409 0.208727
0.503352 0.242902 0.10255
0.717403 0.269642 0.269945
0.67803 0.329064 0.118623
0.410954 0.285199 0.117814
0.353325 0.353391 3.62205e-05
0.596535 0.402255 0.137398
[...]
POINT_DATA 8192
SCALARS A_0 double 1
LOOKUP_TABLE default
1.00123 1.0001 1.00298 0.999804 0.999738 0.997535 0.999893 0.99615 1.0001 0.997349 0.999804 0.9946 0.997535 0.994857 0.99615 0.994156 1.00298 0.999804 1.00602 0.9998 0.999893 0.99615 0.999868 0.995505 0.999804 0.9946 0.9998 0.996184 0.99615 0.994156 0.995505 0.99253 0.999738 0.997535 0.999893 0.99615 0.998098 0.996837 0.99632 0.996196 0.997535 0.994857 0.99615 0.994156 0.996837 0.995849 0.996196 0.993874 0.999893 0.99615 0.999868 0.995505 0.99632 0.996196 0.995617 0.992779 0.99615 0.994156 0.995505 0.99253 0.996196 0.993874 0.992779 0.992167 0.997349 0.996412 0.9946 0.993727 0.994857 0.994862 0.994156 0.993142 0.996412 0.996746 0.993727 0.992053 0.994862 0.994621 0.993142 0.992139 0.9946 0.993727 0.996184 0.991652 0.994156 0.993142 0.99253 0.988228 0.993727 0.992053 0.991652 0.988925 0.993142 0.992139 0.988228 0.989525 0.994857 0.994862 0.994156 0.993142 0.995849 0.996039 0.993874 0.993058 0.994862 0.994621 0.993142 0.992139 0.996039 0.994397 0.993058 0.992215 0.994156 0.993142 0.99253 0.988228 0.993874 0.993058 0.992167 0.990889 0.993142 0.992139 0.988228 0.989525 0.993058 0.992215 0.990889 0.989026 0.998098 0.996837 0.99632 0.996196 0.996775 0.995738 0.994333 0.993163 0.996837 0.995849 0.996196 0.993874 0.995738 0.996039 0.993163 0.993058 0.99632 0.996196 0.995617 0.992779 0.994333 0.993163 0.986703 0.990675 0.996196 0.993874 0.992779 0.992167 0.993163 0.993058 0.990675 0.990889 0.996775 0.995738 0.994333 0.993163 0.996261 0.996748 0.994595 0.99113 0.995738 0.996039 0.993163 0.993058 0.996748 0.994397 0.99113 0.992215 0.994333 0.993163 0.986703 0.990675 0.994595 0.99113 0.990502 0.99091 0.993163 0.993058 0.990675 0.990889 0.99113 0.992215 0.99091 0.989026 1.00123 1.0001 0.999738 0.997535 1.00016 0.99882 0.998829 0.996679 1.0001 0.997349 0.997535 0.994857 0.99882 0.996412 0.996679 0.994862 0.999738 0.997535 0.998098 0.996837 0.998829 0.996679 0.996775 0.995738 0.997535 0.994857 0.996837 0.995849 0.996679 0.994862 0.995738 0.996039 1.00016 0.99882 0.998829 0.996679 0.999409 0.998899 0.998344 0.99677 0.99882 0.996412 0.996679 0.994862 0.998899 0.996746 0.99677 0.994621 0.998829 0.996679 0.996775 0.995738 0.998344 0.99677 0.996261 0.996748 0.996679 0.994862 0.995738 0.996039 0.99677 0.994621 0.996748 0.994397 1.00161 0.999675 1.00337 0.999604 0.999547 0.997828 0.99943 0.996798 0.999675 0.997588 0.999604 0.996649 0.997828 0.997506 0.996798 0.995474 1.00337 0.999604 1.00522 0.999401 0.99943 0.996798 0.999418 0.9957 0.999604 0.996649 0.999401 0.995586 0.996798 0.995474 0.9957 0.994211 0.999547 0.997828 0.99943 0.996798 0.996206 0.99519 0.995258 0.993291 0.997828 0.997506 0.996798 0.995474 0.99519 0.996406 0.993291 0.994023 0.99943 0.996798 0.999418 0.9957 0.995258 0.993291 0.993527 0.994508 0.996798 0.995474 0.9957 0.994211 0.993291 0.994023 0.994508 0.988577 0.997588 0.997362 0.996649 0.992234 0.997506 0.996159 0.995474 0.992144 0.997362 0.997799 0.992234 0.993718 0.996159 0.994435 0.992144 0.992266 0.996649 0.992234 0.995586 0.991498 0.995474 0.992144 0.994211 0.992643 0.992234 0.993718 0.991498 0.993259 0.992144 0.992266 0.992643 0.986321 0.997506 0.996159 0.995474 0.992144 0.996406 0.996042 0.994023 0.9924 0.996159 0.994435 0.992144 0.992266 0.996042 0.996679 0.9924 0.993122 0.995474 0.992144 0.994211 0.992643 0.994023 0.9924 0.988577 0.99124 0.992144 0.992266 0.992643 0.986321 0.9924 0.993122 0.99124 0.994335 0.996206 0.99519 0.995258 0.993291 0.996275 0.995311 0.994385 0.993815 0.99519 0.996406 0.993291 0.994023 0.995311 0.996042 0.993815 0.9924 0.995258 0.993291 0.993527 0.994508 0.994385 0.993815 0.994101 0.993019 0.993291 0.994023 0.994508 0.988577 0.993815 0.9924 0.993019 0.99124 0.996275 0.995311 0.994385 0.993815 0.996844 0.996601 0.992625 0.99276 0.995311 0.996042 0.993815 0.9924 0.996601 0.996679 0.99276 0.993122 0.994385 0.993815 0.994101 0.993019 0.992625 0.99276 0.989684 0.989752 0.993815 0.9924 0.993019 0.99124 0.99276 0.993122 0.989752 0.994335 1.00161 0.999675 0.999547 0.997828 1.00015 0.998598 0.998624 0.997804 0.999675 0.997588 0.997828 0.997506 0.998598 0.997362 0.997804 0.996159 0.999547 0.997828 0.996206 0.99519 0.998624 0.997804 0.996275 0.995311 0.997828 0.997506 0.99519 0.996406 0.997804 0.996159 0.995311 0.996042 1.00015 0.998598 0.998624 0.997804 0.999409 1.00026 0.999321 0.996621 0.998598 0.997362 0.997804 0.996159 1.00026 0.997799 0.996621 0.994435 0.998624 0.997804 0.996275 0.995311 0.999321 0.996621 0.996844 0.996601 0.997804 0.996159 0.995311 0.996042 0.996621 0.994435 0.996601 0.996679 1.00681 1.0082 1.00933 1.0136 1.00711 1.00862 1.01509 1.01405 1.0082 1.00559 1.0136 1.01224 1.00862 1.00592 1.01405 1.01008 1.00933 1.0136 1.01264 1.0168 1.01509 1.01405 1.01204 1.01197 1.0136 1.01224 1.0168 1.01075 1.01405 1.01008 1.01197 1.01296 1.00711 1.00862 1.01509 1.01405 1.00655 1.00731 1.0144 1.01459 1.00862 1.00592 1.01405 1.01008 1.00731 1.0067 1.01459 1.00706 1.01509 1.01405 1.01204 1.01197 1.0144 1.01459 1.00791 1.01596 1.01405 1.01008 1.01197 1.01296 1.01459 1.00706 1.01596 1.01031 1.00559 1.0042 1.01224 1.0079 1.00592 1.00573 1.01008 1.00918 1.0042 1.00196 1.0079 1.0025 1.00573 1.00297 1.00918 1.00805 1.01224 1.0079 1.01075 1.01 1.01008 1.00918 1.01296 1.01406 1.0079 1.0025 1.01 1.00639 1.00918 1.00805 1.01406 1.00616 1.00592 1.00573 1.01008 1.00918 1.0067 1.00774 1.00706 1.0069 1.00573 1.00297 1.00918 1.00805 1.00774 1.00433 1.0069 1.00853 1.01008 1.00918 1.01296 1.01406 1.00706 1.0069 1.01031 1.00957 1.00918 1.00805 1.01406 1.00616 1.0069 1.00853 1.00957 1.0076 1.00655 1.00731 1.0144 1.01459 1.00534 1.00491 1.00794 1.01093 1.00731 1.0067 1.01459 1.00706 1.00491 1.00774 1.01093 1.0069 1.0144 1.01459 1.00791 1.01596 1.00794 1.01093 1.01187 1.01297 1.01459 1.00706 1.01596 1.01031 1.01093 1.0069 1.01297 1.00957 1.00534 1.00491 1.00794 1.01093 1.00149 1.00315 1.00351 1.00403 1.00491 1.00774 1.01093 1.0069 1.00315 1.00433 1.00403 1.00853 1.00794 1.01093 1.01187 1.01297 1.00351 1.00403 1.0061 1.00688 1.01093 1.0069 1.01297 1.00957 1.00403 1.00853 1.00688 1.0076 1.00681 1.0082 1.00711 1.00862 1.00059 1.00177 1.0031 1.00351 1.0082 1.00559 1.00862 1.00592 1.00177 1.0042 1.00351 1.00573 1.00711 1.00862 1.00655 1.00731 1.0031 1.00351 1.00534 1.00491 1.00862 1.00592 1.00731 1.0067 1.00351 1.00573 1.00491 1.00774 1.00059 1.00177 1.0031 1.00351 0.999409 0.998455 0.999304 1.00142 1.00177 1.0042 1.00351 1.00573 0.998455 1.00196 1.00142 1.00297 1.0031 1.00351 1.00534 1.00491 0.999304 1.00142 1.00149 1.00315 1.00351 1.00573 1.00491 1.00774 1.00142 1.00297 1.00315 1.00433 1.00848 1.00781 1.01383 1.0135 1.00762 1.00896 1.01016 1.00736 1.00781 1.0086 1.0135 1.01026 1.00896 1.01219 1.00736 1.01552 1.01383 1.0135 1.02231 1.01863 1.01016 1.00736 1.02314 1.02183 1.0135 1.01026 1.01863 1.00991 1.00736 1.01552 1.02183 1.01176 1.00762 1.00896 1.01016 1.00736 1.00729 1.00755 1.00986 1.01138 1.00896 1.01219 1.00736 1.01552 1.00755 1.00774 1.01138 1.01566 1.01016 1.00736 1.02314 1.02183 1.00986 1.01138 1.01567 1.01731 1.00736 1.01552 1.02183 1.01176 1.01138 1.01566 1.01731 1.01879 1.0086 1.00529 1.01026 1.00833 1.01219 1.00628 1.01552 1.00585 1.00529 1.00147 1.00833 1.00377 1.00628 1.00273 1.00585 1.00766 1.01026 1.00833 1.00991 1.0165 1.01552 1.00585 1.01176 1.01355 1.00833 1.00377 1.0165 1.00388 1.00585 1.00766 1.01355 1.00706 1.01219 1.00628 1.01552 1.00585 1.00774 1.00627 1.01566 1.01026 1.00628 1.00273 1.00585 1.00766 1.00627 1.00415 1.01026 1.00748 1.01552 1.00585 1.01176 1.01355 1.01566 1.01026 1.01879 1.01795 1.00585 1.00766 1.01355 1.00706 1.01026 1.00748 1.01795 1.01514 1.00729 1.00755 1.00986 1.01138 1.00465 1.0055 1.00931 1.00724 1.00755 1.00774 1.01138 1.01566 1.0055 1.00627 1.00724 1.01026 1.00986 1.01138 1.01567 1.01731 1.00931 1.00724 1.00268 1.01748 1.01138 1.01566 1.01731 1.01879 1.00724 1.01026 1.01748 1.01795 1.00465 1.0055 1.00931 1.00724 1.00098 1.00219 1.00313 1.0058 1.0055 1.00627 1.00724 1.01026 1.00219 1.00415 1.0058 1.00748 1.00931 1.00724 1.00268 1.01748 1.00313 1.0058 1.00456 1.00426 1.00724 1.01026 1.01748 1.01795 1.0058 1.00748 1.00426 1.01514 1.00848 1.00781 1.00762 1.00896 1.00047 1.00214 1.0018 1.00254 1.00781 1.0086 1.00896 1.01219 1.00214 1.00529 1.00254 1.00628 1.00762 1.00896 1.00729 1.00755 1.0018 1.00254 1.00465 1.0055 1.00896 1.01219 1.00755 1.00774 1.00254 1.00628 1.0055 1.00627 1.00047 1.00214 1.0018 1.00254 0.999409 0.999094 0.9999 1.00091 1.00214 1.00529 1.00254 1.00628 0.999094 1.00147 1.00091 1.00273 1.0018 1.00254 1.00465 1.0055 0.9999 1.00091 1.00098 1.00219 1.00254 1.00628 1.0055 1.00627 1.00091 1.00273 1.00219 1.00415 1.0017 0.999796 1.00264 0.999545 0.999554 0.997464 0.999137 0.995946 0.999796 0.998922 0.999545 0.996712 0.997464 0.996833 0.995946 0.995693 1.00264 0.999545 1.00546 0.999778 0.999137 0.995946 0.999352 0.997726 0.999545 0.996712 0.999778 0.995759 0.995946 0.995693 0.997726 0.997548 0.999554 0.997464 0.999137 0.995946 0.99742 0.996261 0.996156 0.993354 0.997464 0.996833 0.995946 0.995693 0.996261 0.995581 0.993354 0.992308 0.999137 0.995946 0.999352 0.997726 0.996156 0.993354 0.993708 0.990489 0.995946 0.995693 0.997726 0.997548 0.993354 0.992308 0.990489 0.989568 0.998922 0.995991 0.996712 0.993739 0.996833 0.996287 0.995693 0.993463 0.995991 0.996059 0.993739 0.990576 0.996287 0.99645 0.993463 0.992471 0.996712 0.993739 0.995759 0.991242 0.995693 0.993463 0.997548 0.996034 0.993739 0.990576 0.991242 0.989958 0.993463 0.992471 0.996034 0.991477 0.996833 0.996287 0.995693 0.993463 0.995581 0.995091 0.992308 0.991295 0.996287 0.99645 0.993463 0.992471 0.995091 0.99638 0.991295 0.990553 0.995693 0.993463 0.997548 0.996034 0.992308 0.991295 0.989568 0.986361 0.993463 0.992471 0.996034 0.991477 0.991295 0.990553 0.986361 0.993121 0.99742 0.996261 0.996156 0.993354 0.99557 0.994725 0.993531 0.991221 0.996261 0.995581 0.993354 0.992308 0.994725 0.995091 0.991221 0.991295 0.996156 0.993354 0.993708 0.990489 0.993531 0.991221 0.989357 0.989092 0.993354 0.992308 0.990489 0.989568 0.991221 0.991295 0.989092 0.986361 0.99557 0.994725 0.993531 0.991221 0.995394 0.995334 0.993205 0.992818 0.994725 0.995091 0.991221 0.991295 0.995334 0.99638 0.992818 0.990553 0.993531 0.991221 0.989357 0.989092 0.993205 0.992818 0.991307 0.98752 0.991221 0.991295 0.989092 0.986361 0.992818 0.990553 0.98752 0.993121 1.0017 0.999796 0.999554 0.997464 0.999486 0.998854 0.998306 0.997065 0.999796 0.998922 0.997464 0.996833 0.998854 0.995991 0.997065 0.996287 0.999554 0.997464 0.99742 0.996261 0.998306 0.997065 0.99557 0.994725 0.997464 0.996833 0.996261 0.995581 0.997065 0.996287 0.994725 0.995091 0.999486 0.998854 0.998306 0.997065 0.999409 0.999042 0.998852 0.99753 0.998854 0.995991 0.997065 0.996287 0.999042 0.996059 0.99753 0.99645 0.998306 0.997065 0.99557 0.994725 0.998852 0.99753 0.995394 0.995334 0.997065 0.996287 0.994725 0.995091 0.99753 0.99645 0.995334 0.99638 0.997234 0.997331 0.993953 0.994496 0.996065 0.995726 0.993031 0.994553 0.997331 0.997778 0.994496 0.994289 0.995726 0.996405 0.994553 0.994967 0.993953 0.994496 0.987633 0.994826 0.993031 0.994553 0.989602 0.991916 0.994496 0.994289 0.994826 0.995498 0.994553 0.994967 0.991916 0.99673 0.996065 0.995726 0.993031 0.994553 0.996891 0.995662 0.992278 0.995128 0.995726 0.996405 0.994553 0.994967 0.995662 0.996005 0.995128 0.994226 0.993031 0.994553 0.989602 0.991916 0.992278 0.995128 0.986073 0.993966 0.994553 0.994967 0.991916 0.99673 0.995128 0.994226 0.993966 0.994383 0.997778 0.999613 0.994289 1.00072 0.996405 0.997498 0.994967 0.998023 0.999613 1.0011 1.00072 1.00374 0.997498 0.999215 0.998023 1.00037 0.994289 1.00072 0.995498 1.00039 0.994967 0.998023 0.99673 0.996298 1.00072 1.00374 1.00039 1.0055 0.998023 1.00037 0.996298 0.999765 0.996405 0.997498 0.994967 0.998023 0.996005 0.995833 0.994226 0.994111 0.997498 0.999215 0.998023 1.00037 0.995833 0.995993 0.994111 0.995985 0.994967 0.998023 0.99673 0.996298 0.994226 0.994111 0.994383 0.990499 0.998023 1.00037 0.996298 0.999765 0.994111 0.995985 0.990499 0.993818 0.996891 0.995662 0.992278 0.995128 0.996734 0.996114 0.991694 0.992008 0.995662 0.996005 0.995128 0.994226 0.996114 0.995833 0.992008 0.994111 0.992278 0.995128 0.986073 0.993966 0.991694 0.992008 0.991081 0.990691 0.995128 0.994226 0.993966 0.994383 0.992008 0.994111 0.990691 0.990499 0.996734 0.996114 0.991694 0.992008 0.996768 0.996758 0.994652 0.992966 0.996114 0.995833 0.992008 0.994111 0.996758 0.995993 0.992966 0.995985 0.991694 0.992008 0.991081 0.990691 0.994652 0.992966 0.989932 0.989644 0.992008 0.994111 0.990691 0.990499 0.992966 0.995985 0.989644 0.993818 0.997234 0.997331 0.996065 0.995726 0.99957 0.99927 0.998795 0.997851 0.997331 0.997778 0.995726 0.996405 0.99927 0.999613 0.997851 0.997498 0.996065 0.995726 0.996891 0.995662 0.998795 0.997851 0.996734 0.996114 0.995726 0.996405 0.995662 0.996005 0.997851 0.997498 0.996114 0.995833 0.99957 0.99927 0.998795 0.997851 0.999409 1.00067 1.00028 0.999298 0.99927 0.999613 0.997851 0.997498 1.00067 1.0011 0.999298 0.999215 0.998795 0.997851 0.996734 0.996114 1.00028 0.999298 0.996768 0.996758 0.997851 0.997498 0.996114 0.995833 0.999298 0.999215 0.996758 0.995993 0.997234 0.996065 0.993953 0.993031 0.995875 0.995106 0.99426 0.99 0.996065 0.996891 0.993031 0.992278 0.995106 0.99626 0.99 0.993011 0.993953 0.993031 0.987633 0.989602 0.99426 0.99 0.995109 0.994219 0.993031 0.992278 0.989602 0.986073 0.99 0.993011 0.994219 0.990609 0.995875 0.995106 0.99426 0.99 0.99732 0.996412 0.996376 0.994713 0.995106 0.99626 0.99 0.993011 0.996412 0.996496 0.994713 0.991899 0.99426 0.99 0.995109 0.994219 0.996376 0.994713 0.993628 0.992788 0.99 0.993011 0.994219 0.990609 0.994713 0.991899 0.992788 0.991431 0.996891 0.996734 0.992278 0.991694 0.99626 0.994842 0.993011 0.99657 0.996734 0.996768 0.991694 0.994652 0.994842 0.997206 0.99657 0.994252 0.992278 0.991694 0.986073 0.991081 0.993011 0.99657 0.990609 0.993395 0.991694 0.994652 0.991081 0.989932 0.99657 0.994252 0.993395 0.992204 0.99626 0.994842 0.993011 0.99657 0.996496 0.99656 0.991899 0.993186 0.994842 0.997206 0.99657 0.994252 0.99656 0.996076 0.993186 0.995879 0.993011 0.99657 0.990609 0.993395 0.991899 0.993186 0.991431 0.991768 0.99657 0.994252 0.993395 0.992204 0.993186 0.995879 0.991768 0.990267 0.99732 0.996412 0.996376 0.994713 0.999428 0.997848 0.9998 0.996592 0.996412 0.996496 0.994713 0.991899 0.997848 0.99656 0.996592 0.993186 0.996376 0.994713 0.993628 0.992788 0.9998 0.996592 1.00057 0.994687 0.994713 0.991899 0.992788 0.991431 0.996592 0.993186 0.994687 0.991768 0.999428 0.997848 0.9998 0.996592 1.00149 0.998614 1.00351 0.998788 0.997848 0.99656 0.996592 0.993186 0.998614 0.996076 0.998788 0.995879 0.9998 0.996592 1.00057 0.994687 1.00351 0.998788 1.0061 0.998979 0.996592 0.993186 0.994687 0.991768 0.998788 0.995879 0.998979 0.990267 0.997234 0.996065 0.995875 0.995106 0.99957 0.998795 0.99867 0.997626 0.996065 0.996891 0.995106 0.99626 0.998795 0.996734 0.997626 0.994842 0.995875 0.995106 0.99732 0.996412 0.99867 0.997626 0.999428 0.997848 0.995106 0.99626 0.996412 0.996496 0.997626 0.994842 0.997848 0.99656 0.99957 0.998795 0.99867 0.997626 0.999409 1.00028 0.999304 0.9977 0.998795 0.996734 0.997626 0.994842 1.00028 0.996768 0.9977 0.997206 0.99867 0.997626 0.999428 0.997848 0.999304 0.9977 1.00149 0.998614 0.997626 0.994842 0.997848 0.99656 0.9977 0.997206 0.998614 0.996076 1.00161 0.999547 1.00337 0.99943 1.00029 0.998347 1.00046 0.996909 0.999547 0.996206 0.99943 0.995258 0.998347 0.996646 0.996909 0.995061 1.00337 0.99943 1.00522 0.999418 1.00046 0.996909 1.00065 0.99759 0.99943 0.995258 0.999418 0.993527 0.996909 0.995061 0.99759 0.997827 1.00029 0.998347 1.00046 0.996909 0.997984 0.997166 0.995182 0.995227 0.998347 0.996646 0.996909 0.995061 0.997166 0.994749 0.995227 0.992948 1.00046 0.996909 1.00065 0.99759 0.995182 0.995227 0.991255 0.994353 0.996909 0.995061 0.99759 0.997827 0.995227 0.992948 0.994353 0.992906 0.996206 0.996275 0.995258 0.994385 0.996646 0.99741 0.995061 0.992717 0.996275 0.996844 0.994385 0.992625 0.99741 0.996433 0.992717 0.993975 0.995258 0.994385 0.993527 0.994101 0.995061 0.992717 0.997827 0.987562 0.994385 0.992625 0.994101 0.989684 0.992717 0.993975 0.987562 0.992595 0.996646 0.99741 0.995061 0.992717 0.994749 0.995342 0.992948 0.990714 0.99741 0.996433 0.992717 0.993975 0.995342 0.996184 0.990714 0.993522 0.995061 0.992717 0.997827 0.987562 0.992948 0.990714 0.992906 0.992891 0.992717 0.993975 0.987562 0.992595 0.990714 0.993522 0.992891 0.986056 0.997984 0.997166 0.995182 0.995227 0.996874 0.994871 0.993992 0.991858 0.997166 0.994749 0.995227 0.992948 0.994871 0.995342 0.991858 0.990714 0.995182 0.995227 0.991255 0.994353 0.993992 0.991858 0.996051 0.991701 0.995227 0.992948 0.994353 0.992906 0.991858 0.990714 0.991701 0.992891 0.996874 0.994871 0.993992 0.991858 0.996059 0.995787 0.990576 0.993921 0.994871 0.995342 0.991858 0.990714 0.995787 0.996184 0.993921 0.993522 0.993992 0.991858 0.996051 0.991701 0.990576 0.993921 0.989958 0.99053 0.991858 0.990714 0.991701 0.992891 0.993921 0.993522 0.99053 0.986056 1.00161 0.999547 1.00029 0.998347 1.00015 0.998624 0.99958 0.997975 0.999547 0.996206 0.998347 0.996646 0.998624 0.996275 0.997975 0.99741 1.00029 0.998347 0.997984 0.997166 0.99958 0.997975 0.996874 0.994871 0.998347 0.996646 0.997166 0.994749 0.997975 0.99741 0.994871 0.995342 1.00015 0.998624 0.99958 0.997975 0.999409 0.999321 0.999042 0.998465 0.998624 0.996275 0.997975 0.99741 0.999321 0.996844 0.998465 0.996433 0.99958 0.997975 0.996874 0.994871 0.999042 0.998465 0.996059 0.995787 0.997975 0.99741 0.994871 0.995342 0.998465 0.996433 0.995787 0.996184 1.0011 0.999788 1.00374 1.0008 0.999215 0.997824 1.00037 0.998241 0.999788 0.997679 1.0008 0.996924 0.997824 0.995195 0.998241 0.995052 1.00374 1.0008 1.0055 1.0004 1.00037 0.998241 0.999765 0.996962 1.0008 0.996924 1.0004 0.995335 0.998241 0.995052 0.996962 0.992371 0.999215 0.997824 1.00037 0.998241 0.995993 0.99539 0.995985 0.994711 0.997824 0.995195 0.998241 0.995052 0.99539 0.99506 0.994711 0.994614 1.00037 0.998241 0.999765 0.996962 0.995985 0.994711 0.993818 0.991713 0.998241 0.995052 0.996962 0.992371 0.994711 0.994614 0.991713 0.994422 0.997799 0.998117 0.993718 0.992325 0.996809 0.99608 0.99532 0.994317 0.998117 0.994341 0.992325 0.992496 0.99608 0.997175 0.994317 0.994878 0.993718 0.992325 0.993259 0.990141 0.99532 0.994317 0.992419 0.996216 0.992325 0.992496 0.990141 0.987509 0.994317 0.994878 0.996216 0.995495 0.996809 0.99608 0.99532 0.994317 0.997679 0.995195 0.996924 0.995052 0.99608 0.997175 0.994317 0.994878 0.995195 0.99506 0.995052 0.994614 0.99532 0.994317 0.992419 0.996216 0.996924 0.995052 0.995335 0.992371 0.994317 0.994878 0.996216 0.995495 0.995052 0.994614 0.992371 0.994422 0.996768 0.996758 0.994652 0.992966 0.997086 0.996312 0.991898 0.994604 0.996758 0.995993 0.992966 0.995985 0.996312 0.99539 0.994604 0.994711 0.994652 0.992966 0.989932 0.989644 0.991898 0.994604 0.991209 0.99101 0.992966 0.995985 0.989644 0.993818 0.994604 0.994711 0.99101 0.991713 0.997086 0.996312 0.991898 0.994604 0.994341 0.997175 0.992496 0.994878 0.996312 0.99539 0.994604 0.994711 0.997175 0.99506 0.994878 0.994614 0.991898 0.994604 0.991209 0.99101 0.992496 0.994878 0.987509 0.995495 0.994604 0.994711 0.99101 0.991713 0.994878 0.994614 0.995495 0.994422 0.999409 1.00067 1.00028 0.999298 1.00026 0.999375 0.999362 0.998781 1.00067 1.0011 0.999298 0.999215 0.999375 0.999788 0.998781 0.997824 1.00028 0.999298 0.996768 0.996758 0.999362 0.998781 0.997086 0.996312 0.999298 0.999215 0.996758 0.995993 0.998781 0.997824 0.996312 0.99539 1.00026 0.999375 0.999362 0.998781 0.997799 0.996809 0.998117 0.99608 0.999375 0.999788 0.998781 0.997824 0.996809 0.997679 0.99608 0.995195 0.999362 0.998781 0.997086 0.996312 0.998117 0.99608 0.994341 0.997175 0.998781 0.997824 0.996312 0.99539 0.99608 0.995195 0.997175 0.99506 0.996923 0.996095 0.997287 0.99363 1.00007 0.998948 1.00028 0.997368 0.996095 0.994277 0.99363 0.991895 0.998948 0.996379 0.997368 0.9941 0