# vtk DataFile Version 3.0
#This file was generated by the deal.II library on 2025/4/16 at 17:54:27
ASCII
DATASET UNSTRUCTURED_GRID

POINTS 8192 double
-0.353436 1.712e-05 -0.353737
-0.461858 -0.00169093 -0.298016
-0.528708 -0.0100848 -0.529009
-0.63924 -0.00991702 -0.42361
-0.414251 -0.117323 -0.299723
-0.507767 -0.105788 -0.25805
-0.591204 -0.165839 -0.431748
-0.677044 -0.144525 -0.355896
-0.461858 -0.00169093 -0.298016
-0.568895 1.43837e-05 -0.235839
-0.63924 -0.00991702 -0.42361
-0.743722 -0.00568702 -0.311594
-0.507767 -0.105788 -0.25805
-0.600353 -0.0913818 -0.21219
-0.677044 -0.144525 -0.355896
-0.759237 -0.120671 -0.276616
-0.528708 -0.0100848 -0.529009
-0.63924 -0.00991702 -0.42361
-0.706995 1.38863e-05 -0.707284
-0.821473 -0.00286208 -0.548212
-0.591204 -0.165839 -0.431748
-0.677044 -0.144525 -0.355896
-0.773749 -0.202664 -0.563444
-0.851612 -0.174052 -0.45143
-0.63924 -0.00991702 -0.42361
-0.743722 -0.00568702 -0.311594
-0.821473 -0.00286208 -0.548212
-0.923738 1.26024e-05 -0.382807
-0.677044 -0.144525 -0.355896
-0.759237 -0.120671 -0.276616
-0.851612 -0.174052 -0.45143
-0.9227 -0.14284 -0.337186
-0.414251 -0.117323 -0.299723
-0.507767 -0.105788 -0.25805
-0.591204 -0.165839 -0.431748
-0.677044 -0.144525 -0.355896
-0.471275 -0.235658 -0.235842
-0.550584 -0.211178 -0.211362
-0.645065 -0.320071 -0.320255
-0.70868 -0.279094 -0.279278
-0.507767 -0.105788 -0.25805
-0.600353 -0.0913818 -0.21219
-0.677044 -0.144525 -0.355896
-0.759237 -0.120671 -0.276616
-0.550584 -0.211178 -0.211362
-0.629265 -0.184253 -0.184401
-0.70868 -0.279094 -0.279278
-0.77024 -0.236589 -0.236738
-0.591204 -0.165839 -0.431748
-0.677044 -0.144525 -0.355896
-0.773749 -0.202664 -0.563444
-0.851612 -0.174052 -0.45143
-0.645065 -0.320071 -0.320255
-0.70868 -0.279094 -0.279278
-0.824911 -0.399522 -0.399694
-0.871491 -0.342774 -0.342945
-0.677044 -0.144525 -0.355896
-0.759237 -0.120671 -0.276616
-0.851612 -0.174052 -0.45143
-0.9227 -0.14284 -0.337186
-0.70868 -0.279094 -0.279278
-0.77024 -0.236589 -0.236738
-0.871491 -0.342774 -0.342945
-0.914752 -0.285402 -0.285539
-0.568895 1.43837e-05 -0.235839
-0.536725 -0.0024283 -0.11594
-0.743722 -0.00568702 -0.311594
-0.749206 -0.0104407 -0.159053
-0.600353 -0.0913818 -0.21219
-0.570246 -0.105881 -0.105985
-0.759237 -0.120671 -0.276616
-0.757438 -0.142369 -0.142473
-0.536725 -0.0024283 -0.11594
-0.499838 1.7411e-05 -3.72797e-05
-0.749206 -0.0104407 -0.159053
-0.745522 -0.00992388 -0.00997857
-0.570246 -0.105881 -0.105985
-0.536719 -0.115833 -0.00248045
-0.757438 -0.142369 -0.142473
-0.749201 -0.158946 -0.0104929
-0.743722 -0.00568702 -0.311594
-0.749206 -0.0104407 -0.159053
-0.923738 1.26024e-05 -0.382807
-0.969234 -0.0033152 -0.190717
-0.759237 -0.120671 -0.276616
-0.757438 -0.142369 -0.142473
-0.9227 -0.14284 -0.337186
-0.951073 -0.169897 -0.169988
-0.749206 -0.0104407 -0.159053
-0.745522 -0.00992388 -0.00997857
-0.969234 -0.0033152 -0.190717
-0.999818 1.81926e-05 -3.20886e-05
-0.757438 -0.142369 -0.142473
-0.749201 -0.158946 -0.0104929
-0.951073 -0.169897 -0.169988
-0.969219 -0.190622 -0.00336187
-0.600353 -0.0913818 -0.21219
-0.570246 -0.105881 -0.105985
-0.759237 -0.120671 -0.276616
-0.757438 -0.142369 -0.142473
-0.629265 -0.184253 -0.184401
-0.600334 -0.212014 -0.091471
-0.77024 -0.236589 -0.236738
-0.759219 -0.27644 -0.12076
-0.570246 -0.105881 -0.105985
-0.536719 -0.115833 -0.00248045
-0.757438 -0.142369 -0.142473
-0.749201 -0.158946 -0.0104929
-0.600334 -0.212014 -0.091471
-0.568874 -0.235656 -3.11798e-05
-0.759219 -0.27644 -0.12076
-0.743701 -0.311412 -0.00573258
-0.759237 -0.120671 -0.276616
-0.757438 -0.142369 -0.142473
-0.9227 -0.14284 -0.337186
-0.951073 -0.169897 -0.169988
-0.77024 -0.236589 -0.236738
-0.759219 -0.27644 -0.12076
-0.914752 -0.285402 -0.285539
-0.922674 -0.33702 -0.142918
-0.757438 -0.142369 -0.142473
-0.749201 -0.158946 -0.0104929
-0.951073 -0.169897 -0.169988
-0.969219 -0.190622 -0.00336187
-0.759219 -0.27644 -0.12076
-0.743701 -0.311412 -0.00573258
-0.922674 -0.33702 -0.142918
-0.923702 -0.382633 -2.68579e-05
-0.471275 -0.235658 -0.235842
-0.550584 -0.211178 -0.211362
-0.645065 -0.320071 -0.320255
-0.70868 -0.279094 -0.279278
-0.414232 -0.299468 -0.117431
-0.507748 -0.257796 -0.105895
-0.591185 -0.431493 -0.165946
-0.677025 -0.355642 -0.144633
-0.550584 -0.211178 -0.211362
-0.629265 -0.184253 -0.184401
-0.70868 -0.279094 -0.279278
-0.77024 -0.236589 -0.236738
-0.507748 -0.257796 -0.105895
-0.600334 -0.212014 -0.091471
-0.677025 -0.355642 -0.144633
-0.759219 -0.27644 -0.12076
-0.645065 -0.320071 -0.320255
-0.70868 -0.279094 -0.279278
-0.824911 -0.399522 -0.399694
-0.871491 -0.342774 -0.342945
-0.591185 -0.431493 -0.165946
-0.677025 -0.355642 -0.144633
-0.773716 -0.563192 -0.202756
-0.851579 -0.451178 -0.174144
-0.70868 -0.279094 -0.279278
-0.77024 -0.236589 -0.236738
-0.871491 -0.342774 -0.342945
-0.914752 -0.285402 -0.285539
-0.677025 -0.355642 -0.144633
-0.759219 -0.27644 -0.12076
-0.851579 -0.451178 -0.174144
-0.922674 -0.33702 -0.142918
-0.414232 -0.299468 -0.117431
-0.507748 -0.257796 -0.105895
-0.591185 -0.431493 -0.165946
-0.677025 -0.355642 -0.144633
-0.353421 -0.353462 -3.5775e-05
-0.461843 -0.297741 -0.00174382
-0.528692 -0.528734 -0.0101377
-0.639225 -0.423335 -0.00996992
-0.507748 -0.257796 -0.105895
-0.600334 -0.212014 -0.091471
-0.677025 -0.355642 -0.144633
-0.759219 -0.27644 -0.12076
-0.461843 -0.297741 -0.00174382
-0.568874 -0.235656 -3.11798e-05
-0.639225 -0.423335 -0.00996992
-0.743701 -0.311412 -0.00573258
-0.591185 -0.431493 -0.165946
-0.677025 -0.355642 -0.144633
-0.773716 -0.563192 -0.202756
-0.851579 -0.451178 -0.174144
-0.528692 -0.528734 -0.0101377
-0.639225 -0.423335 -0.00996992
-0.706959 -0.707004 -3.13041e-05
-0.821438 -0.547932 -0.00290727
-0.677025 -0.355642 -0.144633
-0.759219 -0.27644 -0.12076
-0.851579 -0.451178 -0.174144
-0.922674 -0.33702 -0.142918
-0.639225 -0.423335 -0.00996992
-0.743701 -0.311412 -0.00573258
-0.821438 -0.547932 -0.00290727
-0.923702 -0.382633 -2.68579e-05
-0.353436 1.712e-05 -0.353737
-0.461858 -0.00169093 -0.298016
-0.414251 -0.117323 -0.299723
-0.507767 -0.105788 -0.25805
-0.174031 -0.0144787 -0.174271
-0.353591 -0.0141508 -0.152526
-0.294306 -0.154853 -0.155011
-0.431902 -0.13412 -0.134278
-0.461858 -0.00169093 -0.298016
-0.568895 1.43837e-05 -0.235839
-0.507767 -0.105788 -0.25805
-0.600353 -0.0913818 -0.21219
-0.353591 -0.0141508 -0.152526
-0.536725 -0.0024283 -0.11594
-0.431902 -0.13412 -0.134278
-0.570246 -0.105881 -0.105985
-0.414251 -0.117323 -0.299723
-0.507767 -0.105788 -0.25805
-0.471275 -0.235658 -0.235842
-0.550584 -0.211178 -0.211362
-0.294306 -0.154853 -0.155011
-0.431902 -0.13412 -0.134278
-0.414232 -0.299468 -0.117431
-0.507748 -0.257796 -0.105895
-0.507767 -0.105788 -0.25805
-0.600353 -0.0913818 -0.21219
-0.550584 -0.211178 -0.211362
-0.629265 -0.184253 -0.184401
-0.431902 -0.13412 -0.134278
-0.570246 -0.105881 -0.105985
-0.507748 -0.257796 -0.105895
-0.600334 -0.212014 -0.091471
-0.174031 -0.0144787 -0.174271
-0.353591 -0.0141508 -0.152526
-0.294306 -0.154853 -0.155011
-0.431902 -0.13412 -0.134278
7.98174e-05 2.62614e-05 -5.67852e-05
-0.243716 -0.0126012 -0.0126843
-0.174054 -0.174108 -0.0145567
-0.353615 -0.152363 -0.0142289
-0.353591 -0.0141508 -0.152526
-0.536725 -0.0024283 -0.11594
-0.431902 -0.13412 -0.134278
-0.570246 -0.105881 -0.105985
-0.243716 -0.0126012 -0.0126843
-0.499838 1.7411e-05 -3.72797e-05
-0.353615 -0.152363 -0.0142289
-0.536719 -0.115833 -0.00248045
-0.294306 -0.154853 -0.155011
-0.431902 -0.13412 -0.134278
-0.414232 -0.299468 -0.117431
-0.507748 -0.257796 -0.105895
-0.174054 -0.174108 -0.0145567
-0.353615 -0.152363 -0.0142289
-0.353421 -0.353462 -3.5775e-05
-0.461843 -0.297741 -0.00174382
-0.431902 -0.13412 -0.134278
-0.570246 -0.105881 -0.105985
-0.507748 -0.257796 -0.105895
-0.600334 -0.212014 -0.091471
-0.353615 -0.152363 -0.0142289
-0.536719 -0.115833 -0.00248045
-0.461843 -0.297741 -0.00174382
-0.568874 -0.235656 -3.11798e-05
0.353465 -7.19139e-06 0.353724
0.411094 0.117654 0.285489
0.53733 -0.028185 0.537589
0.596674 0.137251 0.402528
0.459905 -0.00425832 0.291259
0.503492 0.102391 0.243191
0.641566 -0.0301231 0.417962
0.67817 0.118472 0.329344
0.411094 0.117654 0.285489
0.4713 0.235667 0.235828
0.596674 0.137251 0.402528
0.660942 0.312231 0.312363
0.503492 0.102391 0.243191
0.548474 0.208444 0.208602
0.67817 0.118472 0.329344
0.717509 0.269677 0.269819
0.53733 -0.028185 0.537589
0.596674 0.137251 0.402528
0.707027 -4.72572e-06 0.707271
0.757725 0.193313 0.519855
0.641566 -0.0301231 0.417962
0.67817 0.118472 0.329344
0.807791 -0.0161522 0.544659
0.831502 0.161696 0.421903
0.596674 0.137251 0.402528
0.660942 0.312231 0.312363
0.757725 0.193313 0.519855
0.816417 0.408213 0.408311
0.67817 0.118472 0.329344
0.717509 0.269677 0.269819
0.831502 0.161696 0.421903
0.859827 0.346703 0.346818
0.459905 -0.00425832 0.291259
0.503492 0.102391 0.243191
0.641566 -0.0301231 0.417962
0.67817 0.118472 0.329344
0.56892 -7.07039e-06 0.235826
0.598383 0.0930881 0.205998
0.753791 -0.0138246 0.304308
0.766512 0.108332 0.25898
0.503492 0.102391 0.243191
0.548474 0.208444 0.208602
0.67817 0.118472 0.329344
0.717509 0.269677 0.269819
0.598383 0.0930881 0.205998
0.628436 0.185128 0.185251
0.766512 0.108332 0.25898
0.780748 0.229507 0.229628
0.641566 -0.0301231 0.417962
0.67817 0.118472 0.329344
0.807791 -0.0161522 0.544659
0.831502 0.161696 0.421903
0.753791 -0.0138246 0.304308
0.766512 0.108332 0.25898
0.923764 -6.06073e-06 0.382793
0.917409 0.143664 0.322877
0.67817 0.118472 0.329344
0.717509 0.269677 0.269819
0.831502 0.161696 0.421903
0.859827 0.346703 0.346818
0.766512 0.108332 0.25898
0.780748 0.229507 0.229628
0.917409 0.143664 0.322877
0.913841 0.286907 0.287011
0.4713 0.235667 0.235828
0.411069 0.285258 0.117737
0.660942 0.312231 0.312363
0.596649 0.402314 0.137322
0.548474 0.208444 0.208602
0.503467 0.242961 0.102473
0.717509 0.269677 0.269819
0.678145 0.329123 0.118547
0.411069 0.285258 0.117737
0.353439 0.353472 1.79409e-05
0.596649 0.402314 0.137322
0.537304 0.537337 -0.0281599
[...]
POINT_DATA 8192
SCALARS D_0 double 1
LOOKUP_TABLE default
2.92728e-05 2.56901e-05 3.39238e-05 2.79033e-05 2.57833e-05 2.39289e-05 2.86109e-05 2.5732e-05 2.56901e-05 2.32927e-05 2.79033e-05 2.48007e-05 2.39289e-05 2.27837e-05 2.5732e-05 2.4232e-05 3.39238e-05 2.79033e-05 2.83004e-05 2.31513e-05 2.86109e-05 2.5732e-05 2.35625e-05 2.18705e-05 2.79033e-05 2.48007e-05 2.31513e-05 2.18406e-05 2.5732e-05 2.4232e-05 2.18705e-05 2.21706e-05 2.57833e-05 2.39289e-05 2.86109e-05 2.5732e-05 2.29474e-05 2.25107e-05 2.45698e-05 2.41234e-05 2.39289e-05 2.27837e-05 2.5732e-05 2.4232e-05 2.25107e-05 2.23806e-05 2.41234e-05 2.37574e-05 2.86109e-05 2.5732e-05 2.35625e-05 2.18705e-05 2.45698e-05 2.41234e-05 2.16754e-05 2.17912e-05 2.5732e-05 2.4232e-05 2.18705e-05 2.21706e-05 2.41234e-05 2.37574e-05 2.17912e-05 2.23519e-05 2.32927e-05 2.03252e-05 2.48007e-05 2.34135e-05 2.27837e-05 2.05564e-05 2.4232e-05 2.33578e-05 2.03252e-05 1.81802e-05 2.34135e-05 2.24448e-05 2.05564e-05 1.89374e-05 2.33578e-05 2.27787e-05 2.48007e-05 2.34135e-05 2.18406e-05 2.3538e-05 2.4232e-05 2.33578e-05 2.21706e-05 2.34814e-05 2.34135e-05 2.24448e-05 2.3538e-05 2.4613e-05 2.33578e-05 2.27787e-05 2.34814e-05 2.42201e-05 2.27837e-05 2.05564e-05 2.4232e-05 2.33578e-05 2.23806e-05 2.08902e-05 2.37574e-05 2.34438e-05 2.05564e-05 1.89374e-05 2.33578e-05 2.27787e-05 2.08902e-05 1.98434e-05 2.34438e-05 2.3251e-05 2.4232e-05 2.33578e-05 2.21706e-05 2.34814e-05 2.37574e-05 2.34438e-05 2.23519e-05 2.35339e-05 2.33578e-05 2.27787e-05 2.34814e-05 2.42201e-05 2.34438e-05 2.3251e-05 2.35339e-05 2.38567e-05 2.29474e-05 2.25107e-05 2.45698e-05 2.41234e-05 1.97757e-05 2.01776e-05 2.30202e-05 2.31711e-05 2.25107e-05 2.23806e-05 2.41234e-05 2.37574e-05 2.01776e-05 2.08902e-05 2.31711e-05 2.34438e-05 2.45698e-05 2.41234e-05 2.16754e-05 2.17912e-05 2.30202e-05 2.31711e-05 2.27256e-05 2.30292e-05 2.41234e-05 2.37574e-05 2.17912e-05 2.23519e-05 2.31711e-05 2.34438e-05 2.30292e-05 2.35339e-05 1.97757e-05 2.01776e-05 2.30202e-05 2.31711e-05 1.80772e-05 1.88695e-05 2.23086e-05 2.25122e-05 2.01776e-05 2.08902e-05 2.31711e-05 2.34438e-05 1.88695e-05 1.98434e-05 2.25122e-05 2.3251e-05 2.30202e-05 2.31711e-05 2.27256e-05 2.30292e-05 2.23086e-05 2.25122e-05 2.45803e-05 2.39078e-05 2.31711e-05 2.34438e-05 2.30292e-05 2.35339e-05 2.25122e-05 2.3251e-05 2.39078e-05 2.38567e-05 2.92728e-05 2.56901e-05 2.57833e-05 2.39289e-05 1.69158e-05 1.82116e-05 1.78489e-05 1.91228e-05 2.56901e-05 2.32927e-05 2.39289e-05 2.27837e-05 1.82116e-05 2.03252e-05 1.91228e-05 2.05564e-05 2.57833e-05 2.39289e-05 2.29474e-05 2.25107e-05 1.78489e-05 1.91228e-05 1.97757e-05 2.01776e-05 2.39289e-05 2.27837e-05 2.25107e-05 2.23806e-05 1.91228e-05 2.05564e-05 2.01776e-05 2.08902e-05 1.69158e-05 1.82116e-05 1.78489e-05 1.91228e-05 1.56756e-06 1.03048e-05 1.04049e-05 1.4753e-05 1.82116e-05 2.03252e-05 1.91228e-05 2.05564e-05 1.03048e-05 1.81802e-05 1.4753e-05 1.89374e-05 1.78489e-05 1.91228e-05 1.97757e-05 2.01776e-05 1.04049e-05 1.4753e-05 1.80772e-05 1.88695e-05 1.91228e-05 2.05564e-05 2.01776e-05 2.08902e-05 1.4753e-05 1.89374e-05 1.88695e-05 1.98434e-05 2.69379e-05 2.24888e-05 3.12206e-05 2.47485e-05 2.28422e-05 2.06313e-05 2.46582e-05 2.20617e-05 2.24888e-05 1.98886e-05 2.47485e-05 2.0486e-05 2.06313e-05 1.9355e-05 2.20617e-05 2.03445e-05 3.12206e-05 2.47485e-05 2.6449e-05 1.98622e-05 2.46582e-05 2.20617e-05 2.03119e-05 1.81873e-05 2.47485e-05 2.0486e-05 1.98622e-05 1.69515e-05 2.20617e-05 2.03445e-05 1.81873e-05 1.78548e-05 2.28422e-05 2.06313e-05 2.46582e-05 2.20617e-05 2.04529e-05 1.97367e-05 2.12945e-05 2.06804e-05 2.06313e-05 1.9355e-05 2.20617e-05 2.03445e-05 1.97367e-05 1.93607e-05 2.06804e-05 2.03105e-05 2.46582e-05 2.20617e-05 2.03119e-05 1.81873e-05 2.12945e-05 2.06804e-05 1.79313e-05 1.85539e-05 2.20617e-05 2.03445e-05 1.81873e-05 1.78548e-05 2.06804e-05 2.03105e-05 1.85539e-05 1.86091e-05 1.98886e-05 1.67219e-05 2.0486e-05 1.93072e-05 1.9355e-05 1.72434e-05 2.03445e-05 1.99484e-05 1.67219e-05 1.58331e-05 1.93072e-05 1.99825e-05 1.72434e-05 1.64963e-05 1.99484e-05 2.04795e-05 2.0486e-05 1.93072e-05 1.69515e-05 1.90868e-05 2.03445e-05 1.99484e-05 1.78548e-05 2.01287e-05 1.93072e-05 1.99825e-05 1.90868e-05 2.15876e-05 1.99484e-05 2.04795e-05 2.01287e-05 2.16359e-05 1.9355e-05 1.72434e-05 2.03445e-05 1.99484e-05 1.93607e-05 1.82653e-05 2.03105e-05 2.07418e-05 1.72434e-05 1.64963e-05 1.99484e-05 2.04795e-05 1.82653e-05 1.77369e-05 2.07418e-05 2.14234e-05 2.03445e-05 1.99484e-05 1.78548e-05 2.01287e-05 2.03105e-05 2.07418e-05 1.86091e-05 2.07445e-05 1.99484e-05 2.04795e-05 2.01287e-05 2.16359e-05 2.07418e-05 2.14234e-05 2.07445e-05 2.23144e-05 2.04529e-05 1.97367e-05 2.12945e-05 2.06804e-05 1.77619e-05 1.78079e-05 2.04096e-05 2.03189e-05 1.97367e-05 1.93607e-05 2.06804e-05 2.03105e-05 1.78079e-05 1.82653e-05 2.03189e-05 2.07418e-05 2.12945e-05 2.06804e-05 1.79313e-05 1.85539e-05 2.04096e-05 2.03189e-05 2.03076e-05 2.06137e-05 2.06804e-05 2.03105e-05 1.85539e-05 1.86091e-05 2.03189e-05 2.07418e-05 2.06137e-05 2.07445e-05 1.77619e-05 1.78079e-05 2.04096e-05 2.03189e-05 1.59941e-05 1.67442e-05 2.04289e-05 2.08847e-05 1.78079e-05 1.82653e-05 2.03189e-05 2.07418e-05 1.67442e-05 1.77369e-05 2.08847e-05 2.14234e-05 2.04096e-05 2.03189e-05 2.03076e-05 2.06137e-05 2.04289e-05 2.08847e-05 2.20751e-05 2.22643e-05 2.03189e-05 2.07418e-05 2.06137e-05 2.07445e-05 2.08847e-05 2.14234e-05 2.22643e-05 2.23144e-05 2.69379e-05 2.24888e-05 2.28422e-05 2.06313e-05 1.53819e-05 1.39807e-05 1.52901e-05 1.563e-05 2.24888e-05 1.98886e-05 2.06313e-05 1.9355e-05 1.39807e-05 1.67219e-05 1.563e-05 1.72434e-05 2.28422e-05 2.06313e-05 2.04529e-05 1.97367e-05 1.52901e-05 1.563e-05 1.77619e-05 1.78079e-05 2.06313e-05 1.9355e-05 1.97367e-05 1.93607e-05 1.563e-05 1.72434e-05 1.78079e-05 1.82653e-05 1.53819e-05 1.39807e-05 1.52901e-05 1.563e-05 1.56756e-06 8.68684e-06 8.38176e-06 1.25988e-05 1.39807e-05 1.67219e-05 1.563e-05 1.72434e-05 8.68684e-06 1.58331e-05 1.25988e-05 1.64963e-05 1.52901e-05 1.563e-05 1.77619e-05 1.78079e-05 8.38176e-06 1.25988e-05 1.59941e-05 1.67442e-05 1.563e-05 1.72434e-05 1.78079e-05 1.82653e-05 1.25988e-05 1.64963e-05 1.67442e-05 1.77369e-05 3.62366e-05 3.75235e-05 4.48631e-05 4.39471e-05 3.76423e-05 3.8693e-05 4.37724e-05 4.31523e-05 3.75235e-05 3.80436e-05 4.39471e-05 4.11753e-05 3.8693e-05 3.89155e-05 4.31523e-05 4.14303e-05 4.48631e-05 4.39471e-05 4.51154e-05 4.43783e-05 4.37724e-05 4.31523e-05 4.41928e-05 4.36669e-05 4.39471e-05 4.11753e-05 4.43783e-05 4.0873e-05 4.31523e-05 4.14303e-05 4.36669e-05 4.01221e-05 3.76423e-05 3.8693e-05 4.37724e-05 4.31523e-05 3.7797e-05 3.88362e-05 4.10693e-05 4.15927e-05 3.8693e-05 3.89155e-05 4.31523e-05 4.14303e-05 3.88362e-05 3.90365e-05 4.15927e-05 4.06173e-05 4.37724e-05 4.31523e-05 4.41928e-05 4.36669e-05 4.10693e-05 4.15927e-05 4.01987e-05 4.03172e-05 4.31523e-05 4.14303e-05 4.36669e-05 4.01221e-05 4.15927e-05 4.06173e-05 4.03172e-05 3.92925e-05 3.80436e-05 3.31586e-05 4.11753e-05 3.70666e-05 3.89155e-05 3.49286e-05 4.14303e-05 3.82201e-05 3.31586e-05 2.75223e-05 3.70666e-05 3.16621e-05 3.49286e-05 3.01451e-05 3.82201e-05 3.41703e-05 4.11753e-05 3.70666e-05 4.0873e-05 3.3715e-05 4.14303e-05 3.82201e-05 4.01221e-05 3.55088e-05 3.70666e-05 3.16621e-05 3.3715e-05 2.70983e-05 3.82201e-05 3.41703e-05 3.55088e-05 3.02314e-05 3.89155e-05 3.49286e-05 4.14303e-05 3.82201e-05 3.90365e-05 3.60241e-05 4.06173e-05 3.81076e-05 3.49286e-05 3.01451e-05 3.82201e-05 3.41703e-05 3.60241e-05 3.25075e-05 3.81076e-05 3.53763e-05 4.14303e-05 3.82201e-05 4.01221e-05 3.55088e-05 4.06173e-05 3.81076e-05 3.92925e-05 3.59306e-05 3.82201e-05 3.41703e-05 3.55088e-05 3.02314e-05 3.81076e-05 3.53763e-05 3.59306e-05 3.15987e-05 3.7797e-05 3.88362e-05 4.10693e-05 4.15927e-05 3.25806e-05 3.44961e-05 3.69322e-05 3.83099e-05 3.88362e-05 3.90365e-05 4.15927e-05 4.06173e-05 3.44961e-05 3.60241e-05 3.83099e-05 3.81076e-05 4.10693e-05 4.15927e-05 4.01987e-05 4.03172e-05 3.69322e-05 3.83099e-05 3.38359e-05 3.55713e-05 4.15927e-05 4.06173e-05 4.03172e-05 3.92925e-05 3.83099e-05 3.81076e-05 3.55713e-05 3.59306e-05 3.25806e-05 3.44961e-05 3.69322e-05 3.83099e-05 2.68296e-05 2.94184e-05 3.11022e-05 3.37747e-05 3.44961e-05 3.60241e-05 3.83099e-05 3.81076e-05 2.94184e-05 3.25075e-05 3.37747e-05 3.53763e-05 3.69322e-05 3.83099e-05 3.38359e-05 3.55713e-05 3.11022e-05 3.37747e-05 2.61867e-05 2.95882e-05 3.83099e-05 3.81076e-05 3.55713e-05 3.59306e-05 3.37747e-05 3.53763e-05 2.95882e-05 3.15987e-05 3.62366e-05 3.75235e-05 3.76423e-05 3.8693e-05 2.04023e-05 2.72571e-05 2.73847e-05 3.14231e-05 3.75235e-05 3.80436e-05 3.8693e-05 3.89155e-05 2.72571e-05 3.31586e-05 3.14231e-05 3.49286e-05 3.76423e-05 3.8693e-05 3.7797e-05 3.88362e-05 2.73847e-05 3.14231e-05 3.25806e-05 3.44961e-05 3.8693e-05 3.89155e-05 3.88362e-05 3.90365e-05 3.14231e-05 3.49286e-05 3.44961e-05 3.60241e-05 2.04023e-05 2.72571e-05 2.73847e-05 3.14231e-05 1.56756e-06 1.50694e-05 1.54775e-05 2.27955e-05 2.72571e-05 3.31586e-05 3.14231e-05 3.49286e-05 1.50694e-05 2.75223e-05 2.27955e-05 3.01451e-05 2.73847e-05 3.14231e-05 3.25806e-05 3.44961e-05 1.54775e-05 2.27955e-05 2.68296e-05 2.94184e-05 3.14231e-05 3.49286e-05 3.44961e-05 3.60241e-05 2.27955e-05 3.01451e-05 2.94184e-05 3.25075e-05 3.8773e-05 4.033e-05 4.88025e-05 4.74457e-05 4.02534e-05 4.15152e-05 4.74056e-05 4.68512e-05 4.033e-05 4.03922e-05 4.74457e-05 4.39412e-05 4.15152e-05 4.1628e-05 4.68512e-05 4.43696e-05 4.88025e-05 4.74457e-05 4.9558e-05 4.87701e-05 4.74056e-05 4.68512e-05 4.77107e-05 4.71168e-05 4.74457e-05 4.39412e-05 4.87701e-05 4.31647e-05 4.68512e-05 4.43696e-05 4.71168e-05 4.35232e-05 4.02534e-05 4.15152e-05 4.74056e-05 4.68512e-05 4.02017e-05 4.15184e-05 4.40518e-05 4.4814e-05 4.15152e-05 4.1628e-05 4.68512e-05 4.43696e-05 4.15184e-05 4.17939e-05 4.4814e-05 4.38569e-05 4.74056e-05 4.68512e-05 4.77107e-05 4.71168e-05 4.40518e-05 4.4814e-05 4.30264e-05 4.42658e-05 4.68512e-05 4.43696e-05 4.71168e-05 4.35232e-05 4.4814e-05 4.38569e-05 4.42658e-05 4.19723e-05 4.03922e-05 3.49246e-05 4.39412e-05 3.93632e-05 4.1628e-05 3.71588e-05 4.43696e-05 4.1038e-05 3.49246e-05 2.87804e-05 3.93632e-05 3.36347e-05 3.71588e-05 3.20244e-05 4.1038e-05 3.67469e-05 4.39412e-05 3.93632e-05 4.31647e-05 3.56046e-05 4.43696e-05 4.1038e-05 4.35232e-05 3.82396e-05 3.93632e-05 3.36347e-05 3.56046e-05 2.88707e-05 4.1038e-05 3.67469e-05 3.82396e-05 3.26776e-05 4.1628e-05 3.71588e-05 4.43696e-05 4.1038e-05 4.17939e-05 3.8322e-05 4.38569e-05 4.13285e-05 3.71588e-05 3.20244e-05 4.1038e-05 3.67469e-05 3.8322e-05 3.43363e-05 4.13285e-05 3.83656e-05 4.43696e-05 4.1038e-05 4.35232e-05 3.82396e-05 4.38569e-05 4.13285e-05 4.19723e-05 3.90167e-05 4.1038e-05 3.67469e-05 3.82396e-05 3.26776e-05 4.13285e-05 3.83656e-05 3.90167e-05 3.45892e-05 4.02017e-05 4.15184e-05 4.40518e-05 4.4814e-05 3.46078e-05 3.69308e-05 3.92312e-05 4.14993e-05 4.15184e-05 4.17939e-05 4.4814e-05 4.38569e-05 3.69308e-05 3.8322e-05 4.14993e-05 4.13285e-05 4.40518e-05 4.4814e-05 4.30264e-05 4.42658e-05 3.92312e-05 4.14993e-05 3.59096e-05 3.91854e-05 4.4814e-05 4.38569e-05 4.42658e-05 4.19723e-05 4.14993e-05 4.13285e-05 3.91854e-05 3.90167e-05 3.46078e-05 3.69308e-05 3.92312e-05 4.14993e-05 2.83812e-05 3.17207e-05 3.3836e-05 3.71058e-05 3.69308e-05 3.8322e-05 4.14993e-05 4.13285e-05 3.17207e-05 3.43363e-05 3.71058e-05 3.83656e-05 3.92312e-05 4.14993e-05 3.59096e-05 3.91854e-05 3.3836e-05 3.71058e-05 2.81965e-05 3.37036e-05 4.14993e-05 4.13285e-05 3.91854e-05 3.90167e-05 3.71058e-05 3.83656e-05 3.37036e-05 3.45892e-05 3.8773e-05 4.033e-05 4.02534e-05 4.15152e-05 2.10676e-05 2.89276e-05 2.9034e-05 3.38127e-05 4.033e-05 4.03922e-05 4.15152e-05 4.1628e-05 2.89276e-05 3.49246e-05 3.38127e-05 3.71588e-05 4.02534e-05 4.15152e-05 4.02017e-05 4.15184e-05 2.9034e-05 3.38127e-05 3.46078e-05 3.69308e-05 4.15152e-05 4.1628e-05 4.15184e-05 4.17939e-05 3.38127e-05 3.71588e-05 3.69308e-05 3.8322e-05 2.10676e-05 2.89276e-05 2.9034e-05 3.38127e-05 1.56756e-06 1.64132e-05 1.66784e-05 2.49656e-05 2.89276e-05 3.49246e-05 3.38127e-05 3.71588e-05 1.64132e-05 2.87804e-05 2.49656e-05 3.20244e-05 2.9034e-05 3.38127e-05 3.46078e-05 3.69308e-05 1.66784e-05 2.49656e-05 2.83812e-05 3.17207e-05 3.38127e-05 3.71588e-05 3.69308e-05 3.8322e-05 2.49656e-05 3.20244e-05 3.17207e-05 3.43363e-05 2.75763e-05 2.38522e-05 3.16757e-05 2.65994e-05 2.41385e-05 2.22395e-05 2.61773e-05 2.41089e-05 2.38522e-05 2.12186e-05 2.65994e-05 2.2793e-05 2.22395e-05 2.09003e-05 2.41089e-05 2.24733e-05 3.16757e-05 2.65994e-05 2.74506e-05 2.20958e-05 2.61773e-05 2.41089e-05 2.21329e-05 2.0568e-05 2.65994e-05 2.2793e-05 2.20958e-05 1.95944e-05 2.41089e-05 2.24733e-05 2.0568e-05 2.00974e-05 2.41385e-05 2.22395e-05 2.61773e-05 2.41089e-05 2.1972e-05 2.13963e-05 2.33583e-05 2.29181e-05 2.22395e-05 2.09003e-05 2.41089e-05 2.24733e-05 2.13963e-05 2.10163e-05 2.29181e-05 2.23641e-05 2.61773e-05 2.41089e-05 2.21329e-05 2.0568e-05 2.33583e-05 2.29181e-05 2.0569e-05 2.09689e-05 2.41089e-05 2.24733e-05 2.0568e-05 2.00974e-05 2.29181e-05 2.23641e-05 2.09689e-05 2.09364e-05 2.12186e-05 1.77089e-05 2.2793e-05 2.07776e-05 2.09003e-05 1.83229e-05 2.24733e-05 2.1383e-05 1.77089e-05 1.63346e-05 2.07776e-05 2.03924e-05 1.83229e-05 1.71488e-05 2.1383e-05 2.09153e-05 2.2793e-05 2.07776e-05 1.95944e-05 2.06815e-05 2.24733e-05 2.1383e-05 2.00974e-05 2.15648e-05 2.07776e-05 2.03924e-05 2.06815e-05 2.23208e-05 2.1383e-05 2.09153e-05 2.15648e-05 2.24303e-05 2.09003e-05 1.83229e-05 2.24733e-05 2.1383e-05 2.10163e-05 1.94959e-05 2.23641e-05 2.22937e-05 1.83229e-05 1.71488e-05 2.1383e-05 2.09153e-05 1.94959e-05 1.85369e-05 2.22937e-05 2.206e-05 2.24733e-05 2.1383e-05 2.00974e-05 2.15648e-05 2.23641e-05 2.22937e-05 2.09364e-05 2.21976e-05 2.1383e-05 2.09153e-05 2.15648e-05 2.24303e-05 2.22937e-05 2.206e-05 2.21976e-05 2.31947e-05 2.1972e-05 2.13963e-05 2.33583e-05 2.29181e-05 1.91951e-05 1.92569e-05 2.22316e-05 2.21479e-05 2.13963e-05 2.10163e-05 2.29181e-05 2.23641e-05 1.92569e-05 1.94959e-05 2.21479e-05 2.22937e-05 2.33583e-05 2.29181e-05 2.0569e-05 2.09689e-05 2.22316e-05 2.21479e-05 2.22964e-05 2.28958e-05 2.29181e-05 2.23641e-05 2.09689e-05 2.09364e-05 2.21479e-05 2.22937e-05 2.28958e-05 2.21976e-05 1.91951e-05 1.92569e-05 2.22316e-05 2.21479e-05 1.72768e-05 1.77938e-05 2.14662e-05 2.18779e-05 1.92569e-05 1.94959e-05 2.21479e-05 2.22937e-05 1.77938e-05 1.85369e-05 2.18779e-05 2.206e-05 2.22316e-05 2.21479e-05 2.22964e-05 2.28958e-05 2.14662e-05 2.18779e-05 2.36284e-05 2.35438e-05 2.21479e-05 2.22937e-05 2.28958e-05 2.21976e-05 2.18779e-05 2.206e-05 2.35438e-05 2.31947e-05 2.75763e-05 2.38522e-05 2.41385e-05 2.22395e-05 1.49184e-05 1.51366e-05 1.62302e-05 1.70027e-05 2.38522e-05 2.12186e-05 2.22395e-05 2.09003e-05 1.51366e-05 1.77089e-05 1.70027e-05 1.83229e-05 2.41385e-05 2.22395e-05 2.1972e-05 2.13963e-05 1.62302e-05 1.70027e-05 1.91951e-05 1.92569e-05 2.22395e-05 2.09003e-05 2.13963e-05 2.10163e-05 1.70027e-05 1.83229e-05 1.92569e-05 1.94959e-05 1.49184e-05 1.51366e-05 1.62302e-05 1.70027e-05 1.56756e-06 8.63494e-06 9.46113e-06 1.32568e-05 1.51366e-05 1.77089e-05 1.70027e-05 1.83229e-05 8.63494e-06 1.63346e-05 1.32568e-05 1.71488e-05 1.62302e-05 1.70027e-05 1.91951e-05 1.92569e-05 9.46113e-06 1.32568e-05 1.72768e-05 1.77938e-05 1.70027e-05 1.83229e-05 1.92569e-05 1.94959e-05 1.32568e-05 1.71488e-05 1.77938e-05 1.85369e-05 1.74225e-05 1.92153e-05 2.10641e-05 2.20312e-05 1.7985e-05 1.95135e-05 2.13669e-05 2.23201e-05 1.92153e-05 2.26233e-05 2.20312e-05 2.44842e-05 1.95135e-05 2.21334e-05 2.23201e-05 2.36938e-05 2.10641e-05 2.20312e-05 2.24624e-05 2.18267e-05 2.13669e-05 2.23201e-05 2.24645e-05 2.21087e-05 2.20312e-05 2.44842e-05 2.18267e-05 2.09152e-05 2.23201e-05 2.36938e-05 2.21087e-05 2.10713e-05 1.7985e-05 1.95135e-05 2.13669e-05 2.23201e-05 1.89405e-05 2.01069e-05 2.24535e-05 2.25614e-05 1.95135e-05 2.21334e-05 2.23201e-05 2.36938e-05 2.01069e-05 2.18522e-05 2.25614e-05 2.31708e-05 2.13669e-05 2.23201e-05 2.24645e-05 2.21087e-05 2.24535e-05 2.25614e-05 2.27345e-05 2.27061e-05 2.23201e-05 2.36938e-05 2.21087e-05 2.10713e-05 2.25614e-05 2.31708e-05 2.27061e-05 2.13748e-05 2.26233e-05 2.56025e-05 2.44842e-05 2.93317e-05 2.21334e-05 2.35999e-05 2.36938e-05 2.59008e-05 2.56025e-05 2.90841e-05 2.93317e-05 3.46518e-05 2.35999e-05 2.5345e-05 2.59008e-05 2.80988e-05 2.44842e-05 2.93317e-05 2.09152e-05 2.43309e-05 2.36938e-05 2.59008e-05 2.10713e-05 2.17972e-05 2.93317e-05 3.46518e-05 2.43309e-05 2.93818e-05 2.59008e-05 2.80988e-05 2.17972e-05 2.34351e-05 2.21334e-05 2.35999e-05 2.36938e-05 2.59008e-05 2.18522e-05 2.23187e-05 2.31708e-05 2.40887e-05 2.35999e-05 2.5345e-05 2.59008e-05 2.80988e-05 2.23187e-05 2.2772e-05 2.40887e-05 2.46387e-05 2.36938e-05 2.59008e-05 2.10713e-05 2.17972e-05 2.31708e-05 2.40887e-05 2.13748e-05 2.1602e-05 2.59008e-05 2.80988e-05 2.17972e-05 2.34351e-05 2.40887e-05 2.46387e-05 2.1602e-05 2.17046e-05 1.89405e-05 2.01069e-05 2.24535e-05 2.25614e-05 1.78131e-05 1.97254e-05 2.18091e-05 2.26847e-05 2.01069e-05 2.18522e-05 2.25614e-05 2.31708e-05 1.97254e-05 2.23187e-05 2.26847e-05 2.40887e-05 2.24535e-05 2.25614e-05 2.27345e-05 2.27061e-05 2.18091e-05 2.26847e-05 2.33231e-05 2.28588e-05 2.25614e-05 2.31708e-05 2.27061e-05 2.13748e-05 2.26847e-05 2.40887e-05 2.28588e-05 2.1602e-05 1.78131e-05 1.97254e-05 2.18091e-05 2.26847e-05 1.68256e-05 1.9359e-05 2.13259e-05 2.28515e-05 1.97254e-05 2.23187e-05 2.26847e-05 2.40887e-05 1.9359e-05 2.2772e-05 2.28515e-05 2.46387e-05 2.18091e-05 2.26847e-05 2.33231e-05 2.28588e-05 2.13259e-05 2.28515e-05 2.30491e-05 2.29933e-05 2.26847e-05 2.40887e-05 2.28588e-05 2.1602e-05 2.28515e-05 2.46387e-05 2.29933e-05 2.17046e-05 1.74225e-05 1.92153e-05 1.7985e-05 1.95135e-05 9.98847e-06 1.75996e-05 1.38808e-05 1.8561e-05 1.92153e-05 2.26233e-05 1.95135e-05 2.21334e-05 1.75996e-05 2.56025e-05 1.8561e-05 2.35999e-05 1.7985e-05 1.95135e-05 1.89405e-05 2.01069e-05 1.38808e-05 1.8561e-05 1.78131e-05 1.97254e-05 1.95135e-05 2.21334e-05 2.01069e-05 2.18522e-05 1.8561e-05 2.35999e-05 1.97254e-05 2.23187e-05 9.98847e-06 1.75996e-05 1.38808e-05 1.8561e-05 1.56756e-06 1.72653e-05 9.43017e-06 1.77808e-05 1.75996e-05 2.56025e-05 1.8561e-05 2.35999e-05 1.72653e-05 2.90841e-05 1.77808e-05 2.5345e-05 1.38808e-05 1.8561e-05 1.78131e-05 1.97254e-05 9.43017e-06 1.77808e-05 1.68256e-05 1.9359e-05 1.8561e-05 2.35999e-05 1.97254e-05 2.23187e-05 1.77808e-05 2.5345e-05 1.9359e-05 2.2772e-05 1.74225e-05 1.7985e-05 2.10641e-05 2.13669e-05 1.83874e-05 1.88402e-05 2.12916e-05 2.17196e-05 1.7985e-05 1.89405e-05 2.13669e-05 2.24535e-05 1.88402e-05 1.95976e-05 2.17196e-05 2.22881e-05 2.10641e-05 2.13669e-05 2.24624e-05 2.24645e-05 2.12916e-05 2.17196e-05 2.2318e-05 2.25932e-05 2.13669e-05 2.24535e-05 2.24645e-05 2.27345e-05 2.17196e-05 2.22881e-05 2.25932e-05 2.29045e-05 1.83874e-05 1.88402e-05 2.12916e-05 2.17196e-05 2.10217e-05 2.06473e-05 2.28836e-05 2.26617e-05 1.88402e-05 1.95976e-05 2.17196e-05 2.22881e-05 2.06473e-05 2.07657e-05 2.26617e-05 2.23753e-05 2.12916e-05 2.17196e-05 2.2318e-05 2.25932e-05 2.28836e-05 2.26617e-05 2.03724e-05 2.06918e-05 2.17196e-05 2.22881e-05 2.25932e-05 2.29045e-05 2.26617e-05 2.23753e-05 2.06918e-05 2.10484e-05 1.89405e-05 1.78131e-05 2.24535e-05 2.18091e-05 1.95976e-05 1.87628e-05 2.22881e-05 2.17619e-05 1.78131e-05 1.68256e-05 2.18091e-05 2.13259e-05 1.87628e-05 1.83546e-05 2.17619e-05 2.15568e-05 2.24535e-05 2.18091e-05 2.27345e-05 2.33231e-05 2.22881e-05 2.17619e-05 2.29045e-05 2.25376e-05 2.18091e-05 2.13259e-05 2.33231e-05 2.30491e-05 2.17619e-05 2.15568e-05 2.25376e-05 2.20686e-05 1.95976e-05 1.87628e-05 2.22881e-05 2.17619e-05 2.07657e-05 2.06114e-05 2.23753e-05 2.2362e-05 1.87628e-05 1.83546e-05 2.17619e-05 2.15568e-05 2.06114e-05 2.08054e-05 2.2362e-05 2.22876e-05 2.22881e-05 2.17619e-05 2.29045e-05 2.25376e-05 2.23753e-05 2.2362e-05 2.10484e-05 2.06992e-05 2.17619e-05 2.15568e-05 2.25376e-05 2.20686e-05 2.2362e-05 2.22876e-05 2.06992e-05 1.97694e-05 2.10217e-05 2.06473e-05 2.28836e-05 2.26617e-05 2.32171e-05 2.13206e-05 2.64309e-05 2.35292e-05 2.06473e-05 2.07657e-05 2.26617e-05 2.23753e-05 2.13206e