# vtk DataFile Version 3.0
#This file was generated by the deal.II library on 2025/4/17 at 14:10:52
ASCII
DATASET UNSTRUCTURED_GRID

POINTS 8192 double
-0.353436 1.712e-05 -0.353737
-0.461858 -0.00169093 -0.298016
-0.528708 -0.0100848 -0.529009
-0.63924 -0.00991702 -0.42361
-0.414251 -0.117323 -0.299723
-0.507767 -0.105788 -0.25805
-0.591204 -0.165839 -0.431748
-0.677044 -0.144525 -0.355896
-0.461858 -0.00169093 -0.298016
-0.568895 1.43837e-05 -0.235839
-0.63924 -0.00991702 -0.42361
-0.743722 -0.00568702 -0.311594
-0.507767 -0.105788 -0.25805
-0.600353 -0.0913818 -0.21219
-0.677044 -0.144525 -0.355896
-0.759237 -0.120671 -0.276616
-0.528708 -0.0100848 -0.529009
-0.63924 -0.00991702 -0.42361
-0.706995 1.38863e-05 -0.707284
-0.821473 -0.00286208 -0.548212
-0.591204 -0.165839 -0.431748
-0.677044 -0.144525 -0.355896
-0.773749 -0.202664 -0.563444
-0.851612 -0.174052 -0.45143
-0.63924 -0.00991702 -0.42361
-0.743722 -0.00568702 -0.311594
-0.821473 -0.00286208 -0.548212
-0.923738 1.26024e-05 -0.382807
-0.677044 -0.144525 -0.355896
-0.759237 -0.120671 -0.276616
-0.851612 -0.174052 -0.45143
-0.9227 -0.14284 -0.337186
-0.414251 -0.117323 -0.299723
-0.507767 -0.105788 -0.25805
-0.591204 -0.165839 -0.431748
-0.677044 -0.144525 -0.355896
-0.471275 -0.235658 -0.235842
-0.550584 -0.211178 -0.211362
-0.645065 -0.320071 -0.320255
-0.70868 -0.279094 -0.279278
-0.507767 -0.105788 -0.25805
-0.600353 -0.0913818 -0.21219
-0.677044 -0.144525 -0.355896
-0.759237 -0.120671 -0.276616
-0.550584 -0.211178 -0.211362
-0.629265 -0.184253 -0.184401
-0.70868 -0.279094 -0.279278
-0.77024 -0.236589 -0.236738
-0.591204 -0.165839 -0.431748
-0.677044 -0.144525 -0.355896
-0.773749 -0.202664 -0.563444
-0.851612 -0.174052 -0.45143
-0.645065 -0.320071 -0.320255
-0.70868 -0.279094 -0.279278
-0.824911 -0.399522 -0.399694
-0.871491 -0.342774 -0.342945
-0.677044 -0.144525 -0.355896
-0.759237 -0.120671 -0.276616
-0.851612 -0.174052 -0.45143
-0.9227 -0.14284 -0.337186
-0.70868 -0.279094 -0.279278
-0.77024 -0.236589 -0.236738
-0.871491 -0.342774 -0.342945
-0.914752 -0.285402 -0.285539
-0.568895 1.43837e-05 -0.235839
-0.536725 -0.0024283 -0.11594
-0.743722 -0.00568702 -0.311594
-0.749206 -0.0104407 -0.159053
-0.600353 -0.0913818 -0.21219
-0.570246 -0.105881 -0.105985
-0.759237 -0.120671 -0.276616
-0.757438 -0.142369 -0.142473
-0.536725 -0.0024283 -0.11594
-0.499838 1.7411e-05 -3.72797e-05
-0.749206 -0.0104407 -0.159053
-0.745522 -0.00992388 -0.00997857
-0.570246 -0.105881 -0.105985
-0.536719 -0.115833 -0.00248045
-0.757438 -0.142369 -0.142473
-0.749201 -0.158946 -0.0104929
-0.743722 -0.00568702 -0.311594
-0.749206 -0.0104407 -0.159053
-0.923738 1.26024e-05 -0.382807
-0.969234 -0.0033152 -0.190717
-0.759237 -0.120671 -0.276616
-0.757438 -0.142369 -0.142473
-0.9227 -0.14284 -0.337186
-0.951073 -0.169897 -0.169988
-0.749206 -0.0104407 -0.159053
-0.745522 -0.00992388 -0.00997857
-0.969234 -0.0033152 -0.190717
-0.999818 1.81926e-05 -3.20886e-05
-0.757438 -0.142369 -0.142473
-0.749201 -0.158946 -0.0104929
-0.951073 -0.169897 -0.169988
-0.969219 -0.190622 -0.00336187
-0.600353 -0.0913818 -0.21219
-0.570246 -0.105881 -0.105985
-0.759237 -0.120671 -0.276616
-0.757438 -0.142369 -0.142473
-0.629265 -0.184253 -0.184401
-0.600334 -0.212014 -0.091471
-0.77024 -0.236589 -0.236738
-0.759219 -0.27644 -0.12076
-0.570246 -0.105881 -0.105985
-0.536719 -0.115833 -0.00248045
-0.757438 -0.142369 -0.142473
-0.749201 -0.158946 -0.0104929
-0.600334 -0.212014 -0.091471
-0.568874 -0.235656 -3.11798e-05
-0.759219 -0.27644 -0.12076
-0.743701 -0.311412 -0.00573258
-0.759237 -0.120671 -0.276616
-0.757438 -0.142369 -0.142473
-0.9227 -0.14284 -0.337186
-0.951073 -0.169897 -0.169988
-0.77024 -0.236589 -0.236738
-0.759219 -0.27644 -0.12076
-0.914752 -0.285402 -0.285539
-0.922674 -0.33702 -0.142918
-0.757438 -0.142369 -0.142473
-0.749201 -0.158946 -0.0104929
-0.951073 -0.169897 -0.169988
-0.969219 -0.190622 -0.00336187
-0.759219 -0.27644 -0.12076
-0.743701 -0.311412 -0.00573258
-0.922674 -0.33702 -0.142918
-0.923702 -0.382633 -2.68579e-05
-0.471275 -0.235658 -0.235842
-0.550584 -0.211178 -0.211362
-0.645065 -0.320071 -0.320255
-0.70868 -0.279094 -0.279278
-0.414232 -0.299468 -0.117431
-0.507748 -0.257796 -0.105895
-0.591185 -0.431493 -0.165946
-0.677025 -0.355642 -0.144633
-0.550584 -0.211178 -0.211362
-0.629265 -0.184253 -0.184401
-0.70868 -0.279094 -0.279278
-0.77024 -0.236589 -0.236738
-0.507748 -0.257796 -0.105895
-0.600334 -0.212014 -0.091471
-0.677025 -0.355642 -0.144633
-0.759219 -0.27644 -0.12076
-0.645065 -0.320071 -0.320255
-0.70868 -0.279094 -0.279278
-0.824911 -0.399522 -0.399694
-0.871491 -0.342774 -0.342945
-0.591185 -0.431493 -0.165946
-0.677025 -0.355642 -0.144633
-0.773716 -0.563192 -0.202756
-0.851579 -0.451178 -0.174144
-0.70868 -0.279094 -0.279278
-0.77024 -0.236589 -0.236738
-0.871491 -0.342774 -0.342945
-0.914752 -0.285402 -0.285539
-0.677025 -0.355642 -0.144633
-0.759219 -0.27644 -0.12076
-0.851579 -0.451178 -0.174144
-0.922674 -0.33702 -0.142918
-0.414232 -0.299468 -0.117431
-0.507748 -0.257796 -0.105895
-0.591185 -0.431493 -0.165946
-0.677025 -0.355642 -0.144633
-0.353421 -0.353462 -3.5775e-05
-0.461843 -0.297741 -0.00174382
-0.528692 -0.528734 -0.0101377
-0.639225 -0.423335 -0.00996992
-0.507748 -0.257796 -0.105895
-0.600334 -0.212014 -0.091471
-0.677025 -0.355642 -0.144633
-0.759219 -0.27644 -0.12076
-0.461843 -0.297741 -0.00174382
-0.568874 -0.235656 -3.11798e-05
-0.639225 -0.423335 -0.00996992
-0.743701 -0.311412 -0.00573258
-0.591185 -0.431493 -0.165946
-0.677025 -0.355642 -0.144633
-0.773716 -0.563192 -0.202756
-0.851579 -0.451178 -0.174144
-0.528692 -0.528734 -0.0101377
-0.639225 -0.423335 -0.00996992
-0.706959 -0.707004 -3.13041e-05
-0.821438 -0.547932 -0.00290727
-0.677025 -0.355642 -0.144633
-0.759219 -0.27644 -0.12076
-0.851579 -0.451178 -0.174144
-0.922674 -0.33702 -0.142918
-0.639225 -0.423335 -0.00996992
-0.743701 -0.311412 -0.00573258
-0.821438 -0.547932 -0.00290727
-0.923702 -0.382633 -2.68579e-05
-0.353436 1.712e-05 -0.353737
-0.461858 -0.00169093 -0.298016
-0.414251 -0.117323 -0.299723
-0.507767 -0.105788 -0.25805
-0.174031 -0.0144787 -0.174271
-0.353591 -0.0141508 -0.152526
-0.294306 -0.154853 -0.155011
-0.431902 -0.13412 -0.134278
-0.461858 -0.00169093 -0.298016
-0.568895 1.43837e-05 -0.235839
-0.507767 -0.105788 -0.25805
-0.600353 -0.0913818 -0.21219
-0.353591 -0.0141508 -0.152526
-0.536725 -0.0024283 -0.11594
-0.431902 -0.13412 -0.134278
-0.570246 -0.105881 -0.105985
-0.414251 -0.117323 -0.299723
-0.507767 -0.105788 -0.25805
-0.471275 -0.235658 -0.235842
-0.550584 -0.211178 -0.211362
-0.294306 -0.154853 -0.155011
-0.431902 -0.13412 -0.134278
-0.414232 -0.299468 -0.117431
-0.507748 -0.257796 -0.105895
-0.507767 -0.105788 -0.25805
-0.600353 -0.0913818 -0.21219
-0.550584 -0.211178 -0.211362
-0.629265 -0.184253 -0.184401
-0.431902 -0.13412 -0.134278
-0.570246 -0.105881 -0.105985
-0.507748 -0.257796 -0.105895
-0.600334 -0.212014 -0.091471
-0.174031 -0.0144787 -0.174271
-0.353591 -0.0141508 -0.152526
-0.294306 -0.154853 -0.155011
-0.431902 -0.13412 -0.134278
7.98174e-05 2.62614e-05 -5.67852e-05
-0.243716 -0.0126012 -0.0126843
-0.174054 -0.174108 -0.0145567
-0.353615 -0.152363 -0.0142289
-0.353591 -0.0141508 -0.152526
-0.536725 -0.0024283 -0.11594
-0.431902 -0.13412 -0.134278
-0.570246 -0.105881 -0.105985
-0.243716 -0.0126012 -0.0126843
-0.499838 1.7411e-05 -3.72797e-05
-0.353615 -0.152363 -0.0142289
-0.536719 -0.115833 -0.00248045
-0.294306 -0.154853 -0.155011
-0.431902 -0.13412 -0.134278
-0.414232 -0.299468 -0.117431
-0.507748 -0.257796 -0.105895
-0.174054 -0.174108 -0.0145567
-0.353615 -0.152363 -0.0142289
-0.353421 -0.353462 -3.5775e-05
-0.461843 -0.297741 -0.00174382
-0.431902 -0.13412 -0.134278
-0.570246 -0.105881 -0.105985
-0.507748 -0.257796 -0.105895
-0.600334 -0.212014 -0.091471
-0.353615 -0.152363 -0.0142289
-0.536719 -0.115833 -0.00248045
-0.461843 -0.297741 -0.00174382
-0.568874 -0.235656 -3.11798e-05
0.353465 -7.19139e-06 0.353724
0.411094 0.117654 0.285489
0.53733 -0.028185 0.537589
0.596674 0.137251 0.402528
0.459905 -0.00425832 0.291259
0.503492 0.102391 0.243191
0.641566 -0.0301231 0.417962
0.67817 0.118472 0.329344
0.411094 0.117654 0.285489
0.4713 0.235667 0.235828
0.596674 0.137251 0.402528
0.660942 0.312231 0.312363
0.503492 0.102391 0.243191
0.548474 0.208444 0.208602
0.67817 0.118472 0.329344
0.717509 0.269677 0.269819
0.53733 -0.028185 0.537589
0.596674 0.137251 0.402528
0.707027 -4.72572e-06 0.707271
0.757725 0.193313 0.519855
0.641566 -0.0301231 0.417962
0.67817 0.118472 0.329344
0.807791 -0.0161522 0.544659
0.831502 0.161696 0.421903
0.596674 0.137251 0.402528
0.660942 0.312231 0.312363
0.757725 0.193313 0.519855
0.816417 0.408213 0.408311
0.67817 0.118472 0.329344
0.717509 0.269677 0.269819
0.831502 0.161696 0.421903
0.859827 0.346703 0.346818
0.459905 -0.00425832 0.291259
0.503492 0.102391 0.243191
0.641566 -0.0301231 0.417962
0.67817 0.118472 0.329344
0.56892 -7.07039e-06 0.235826
0.598383 0.0930881 0.205998
0.753791 -0.0138246 0.304308
0.766512 0.108332 0.25898
0.503492 0.102391 0.243191
0.548474 0.208444 0.208602
0.67817 0.118472 0.329344
0.717509 0.269677 0.269819
0.598383 0.0930881 0.205998
0.628436 0.185128 0.185251
0.766512 0.108332 0.25898
0.780748 0.229507 0.229628
0.641566 -0.0301231 0.417962
0.67817 0.118472 0.329344
0.807791 -0.0161522 0.544659
0.831502 0.161696 0.421903
0.753791 -0.0138246 0.304308
0.766512 0.108332 0.25898
0.923764 -6.06073e-06 0.382793
0.917409 0.143664 0.322877
0.67817 0.118472 0.329344
0.717509 0.269677 0.269819
0.831502 0.161696 0.421903
0.859827 0.346703 0.346818
0.766512 0.108332 0.25898
0.780748 0.229507 0.229628
0.917409 0.143664 0.322877
0.913841 0.286907 0.287011
0.4713 0.235667 0.235828
0.411069 0.285258 0.117737
0.660942 0.312231 0.312363
0.596649 0.402314 0.137322
0.548474 0.208444 0.208602
0.503467 0.242961 0.102473
0.717509 0.269677 0.269819
0.678145 0.329123 0.118547
0.411069 0.285258 0.117737
0.353439 0.353472 1.79409e-05
0.596649 0.402314 0.137322
0.537304 0.537337 -0.0281599
[...]
POINT_DATA 8192
SCALARS M_0 double 1
LOOKUP_TABLE default
0.998212 1.00074 0.996254 1.00082 1.00001 1.00184 1.00003 1.00223 1.00074 1.0021 1.00082 1.00545 1.00184 1.00325 1.00223 1.00439 0.996254 1.00082 0.995534 1.00069 1.00003 1.00223 1.00003 1.00254 1.00082 1.00545 1.00069 1.00663 1.00223 1.00439 1.00254 1.0037 1.00001 1.00184 1.00003 1.00223 1.00215 1.00283 1.00395 1.00406 1.00184 1.00325 1.00223 1.00439 1.00283 1.00441 1.00406 1.00681 1.00003 1.00223 1.00003 1.00254 1.00395 1.00406 1.00191 1.00277 1.00223 1.00439 1.00254 1.0037 1.00406 1.00681 1.00277 1.00986 1.0021 1.0025 1.00545 1.00442 1.00325 1.00349 1.00439 1.006 1.0025 1.00237 1.00442 1.00804 1.00349 1.00278 1.006 1.00581 1.00545 1.00442 1.00663 1.00604 1.00439 1.006 1.0037 1.00564 1.00442 1.00804 1.00604 1.01176 1.006 1.00581 1.00564 1.01528 1.00325 1.00349 1.00439 1.006 1.00441 1.00539 1.00681 1.00549 1.00349 1.00278 1.006 1.00581 1.00539 1.00629 1.00549 1.00437 1.00439 1.006 1.0037 1.00564 1.00681 1.00549 1.00986 1.0102 1.006 1.00581 1.00564 1.01528 1.00549 1.00437 1.0102 1.0087 1.00215 1.00283 1.00395 1.00406 1.00172 1.00322 1.00537 1.00628 1.00283 1.00441 1.00406 1.00681 1.00322 1.00539 1.00628 1.00549 1.00395 1.00406 1.00191 1.00277 1.00537 1.00628 1.00744 1.00922 1.00406 1.00681 1.00277 1.00986 1.00628 1.00549 1.00922 1.0102 1.00172 1.00322 1.00537 1.00628 1.00462 1.00246 1.00646 1.00491 1.00322 1.00539 1.00628 1.00549 1.00246 1.00629 1.00491 1.00437 1.00537 1.00628 1.00744 1.00922 1.00646 1.00491 1.01282 1.00681 1.00628 1.00549 1.00922 1.0102 1.00491 1.00437 1.00681 1.0087 0.998212 1.00074 1.00001 1.00184 0.999358 1.00086 1.00095 1.00193 1.00074 1.0021 1.00184 1.00325 1.00086 1.0025 1.00193 1.00349 1.00001 1.00184 1.00215 1.00283 1.00095 1.00193 1.00172 1.00322 1.00184 1.00325 1.00283 1.00441 1.00193 1.00349 1.00322 1.00539 0.999358 1.00086 1.00095 1.00193 0.999704 1.00046 1.00091 1.00145 1.00086 1.0025 1.00193 1.00349 1.00046 1.00237 1.00145 1.00278 1.00095 1.00193 1.00172 1.00322 1.00091 1.00145 1.00462 1.00246 1.00193 1.00349 1.00322 1.00539 1.00145 1.00278 1.00246 1.00629 0.997886 1.00021 0.997277 1.00049 1.00044 1.00231 1.00096 1.00245 1.00021 1.0024 1.00049 1.00434 1.00231 1.00381 1.00245 1.00644 0.997277 1.00049 0.994158 1.00108 1.00096 1.00245 1.00084 1.00229 1.00049 1.00434 1.00108 1.00699 1.00245 1.00644 1.00229 1.00613 1.00044 1.00231 1.00096 1.00245 1.00147 1.00409 1.00382 1.00575 1.00231 1.00381 1.00245 1.00644 1.00409 1.00296 1.00575 1.00514 1.00096 1.00245 1.00084 1.00229 1.00382 1.00575 1.00939 1.00902 1.00245 1.00644 1.00229 1.00613 1.00575 1.00514 1.00902 1.00878 1.0024 1.00248 1.00434 1.0077 1.00381 1.0046 1.00644 1.00679 1.00248 1.00304 1.0077 1.00874 1.0046 1.00332 1.00679 1.00659 1.00434 1.0077 1.00699 1.00909 1.00644 1.00679 1.00613 1.01274 1.0077 1.00874 1.00909 1.01009 1.00679 1.00659 1.01274 1.00764 1.00381 1.0046 1.00644 1.00679 1.00296 1.00534 1.00514 1.00591 1.0046 1.00332 1.00679 1.00659 1.00534 1.00586 1.00591 1.00866 1.00644 1.00679 1.00613 1.01274 1.00514 1.00591 1.00878 1.0086 1.00679 1.00659 1.01274 1.00764 1.00591 1.00866 1.0086 1.00574 1.00147 1.00409 1.00382 1.00575 1.00256 1.00514 1.00539 1.00813 1.00409 1.00296 1.00575 1.00514 1.00514 1.00534 1.00813 1.00591 1.00382 1.00575 1.00939 1.00902 1.00539 1.00813 1.01012 1.0074 1.00575 1.00514 1.00902 1.00878 1.00813 1.00591 1.0074 1.0086 1.00256 1.00514 1.00539 1.00813 1.00406 1.00404 1.00537 1.00544 1.00514 1.00534 1.00813 1.00591 1.00404 1.00586 1.00544 1.00866 1.00539 1.00813 1.01012 1.0074 1.00537 1.00544 1.01528 1.01153 1.00813 1.00591 1.0074 1.0086 1.00544 1.00866 1.01153 1.00574 0.997886 1.00021 1.00044 1.00231 0.999449 1.001 1.001 1.00266 1.00021 1.0024 1.00231 1.00381 1.001 1.00248 1.00266 1.0046 1.00044 1.00231 1.00147 1.00409 1.001 1.00266 1.00256 1.00514 1.00231 1.00381 1.00409 1.00296 1.00266 1.0046 1.00514 1.00534 0.999449 1.001 1.001 1.00266 0.999704 1.00144 1.00098 1.00165 1.001 1.00248 1.00266 1.0046 1.00144 1.00304 1.00165 1.00332 1.001 1.00266 1.00256 1.00514 1.00098 1.00165 1.00406 1.00404 1.00266 1.0046 1.00514 1.00534 1.00165 1.00332 1.00404 1.00586 0.993327 0.993223 0.982609 0.98907 0.99423 0.991733 0.990938 0.984251 0.993223 0.992607 0.98907 0.989051 0.991733 0.990872 0.984251 0.988295 0.982609 0.98907 0.98368 0.969274 0.990938 0.984251 0.979389 0.983686 0.98907 0.989051 0.969274 0.986073 0.984251 0.988295 0.983686 0.976998 0.99423 0.991733 0.990938 0.984251 0.990124 0.990642 0.986572 0.987778 0.991733 0.990872 0.984251 0.988295 0.990642 0.993381 0.987778 0.99298 0.990938 0.984251 0.979389 0.983686 0.986572 0.987778 0.978817 0.985083 0.984251 0.988295 0.983686 0.976998 0.987778 0.99298 0.985083 0.97859 0.992607 0.995893 0.989051 0.994043 0.990872 0.996728 0.988295 0.988783 0.995893 0.998759 0.994043 0.99741 0.996728 0.99582 0.988783 0.993409 0.989051 0.994043 0.986073 0.990715 0.988295 0.988783 0.976998 0.99018 0.994043 0.99741 0.990715 0.993441 0.988783 0.993409 0.99018 0.993118 0.990872 0.996728 0.988295 0.988783 0.993381 0.994186 0.99298 0.986793 0.996728 0.99582 0.988783 0.993409 0.994186 0.995318 0.986793 0.993261 0.988295 0.988783 0.976998 0.99018 0.99298 0.986793 0.97859 0.984774 0.988783 0.993409 0.99018 0.993118 0.986793 0.993261 0.984774 0.989512 0.990124 0.990642 0.986572 0.987778 0.995589 0.993396 0.993506 0.994032 0.990642 0.993381 0.987778 0.99298 0.993396 0.994186 0.994032 0.986793 0.986572 0.987778 0.978817 0.985083 0.993506 0.994032 0.987779 0.988828 0.987778 0.99298 0.985083 0.97859 0.994032 0.986793 0.988828 0.984774 0.995589 0.993396 0.993506 0.994032 0.998476 0.997551 0.996498 0.995644 0.993396 0.994186 0.994032 0.986793 0.997551 0.995318 0.995644 0.993261 0.993506 0.994032 0.987779 0.988828 0.996498 0.995644 0.994898 0.992322 0.994032 0.986793 0.988828 0.984774 0.995644 0.993261 0.992322 0.989512 0.993327 0.993223 0.99423 0.991733 0.997901 0.996568 0.996708 0.995324 0.993223 0.992607 0.991733 0.990872 0.996568 0.995893 0.995324 0.996728 0.99423 0.991733 0.990124 0.990642 0.996708 0.995324 0.995589 0.993396 0.991733 0.990872 0.990642 0.993381 0.995324 0.996728 0.993396 0.994186 0.997901 0.996568 0.996708 0.995324 0.999704 0.998783 0.999071 0.998328 0.996568 0.995893 0.995324 0.996728 0.998783 0.998759 0.998328 0.99582 0.996708 0.995324 0.995589 0.993396 0.999071 0.998328 0.998476 0.997551 0.995324 0.996728 0.993396 0.994186 0.998328 0.99582 0.997551 0.995318 0.993014 0.993653 0.98793 0.985328 0.990245 0.991805 0.990415 0.988808 0.993653 0.995649 0.985328 0.99036 0.991805 0.990099 0.988808 0.993425 0.98793 0.985328 0.97347 0.985506 0.990415 0.988808 0.981008 0.97797 0.985328 0.99036 0.985506 0.984913 0.988808 0.993425 0.97797 0.986358 0.990245 0.991805 0.990415 0.988808 0.99378 0.9907 0.989137 0.987571 0.991805 0.990099 0.988808 0.993425 0.9907 0.988162 0.987571 0.984375 0.990415 0.988808 0.981008 0.97797 0.989137 0.987571 0.978044 0.983184 0.988808 0.993425 0.97797 0.986358 0.987571 0.984375 0.983184 0.984491 0.995649 0.995667 0.99036 0.990733 0.990099 0.995088 0.993425 0.990526 0.995667 0.998293 0.990733 0.996488 0.995088 0.996253 0.990526 0.993483 0.99036 0.990733 0.984913 0.988324 0.993425 0.990526 0.986358 0.986153 0.990733 0.996488 0.988324 0.996229 0.990526 0.993483 0.986153 0.990449 0.990099 0.995088 0.993425 0.990526 0.988162 0.995631 0.984375 0.988054 0.995088 0.996253 0.990526 0.993483 0.995631 0.995445 0.988054 0.991985 0.993425 0.990526 0.986358 0.986153 0.984375 0.988054 0.984491 0.991075 0.990526 0.993483 0.986153 0.990449 0.988054 0.991985 0.991075 0.993089 0.99378 0.9907 0.989137 0.987571 0.996669 0.993195 0.990242 0.991544 0.9907 0.988162 0.987571 0.984375 0.993195 0.995631 0.991544 0.988054 0.989137 0.987571 0.978044 0.983184 0.990242 0.991544 0.986755 0.982675 0.987571 0.984375 0.983184 0.984491 0.991544 0.988054 0.982675 0.991075 0.996669 0.993195 0.990242 0.991544 0.997758 0.99697 0.995787 0.992878 0.993195 0.995631 0.991544 0.988054 0.99697 0.995445 0.992878 0.991985 0.990242 0.991544 0.986755 0.982675 0.995787 0.992878 0.994838 0.992577 0.991544 0.988054 0.982675 0.991075 0.992878 0.991985 0.992577 0.993089 0.993014 0.993653 0.990245 0.991805 0.997998 0.998042 0.996238 0.994743 0.993653 0.995649 0.991805 0.990099 0.998042 0.995667 0.994743 0.995088 0.990245 0.991805 0.99378 0.9907 0.996238 0.994743 0.996669 0.993195 0.991805 0.990099 0.9907 0.988162 0.994743 0.995088 0.993195 0.995631 0.997998 0.998042 0.996238 0.994743 0.999704 0.999065 0.999016 0.997649 0.998042 0.995667 0.994743 0.995088 0.999065 0.998293 0.997649 0.996253 0.996238 0.994743 0.996669 0.993195 0.999016 0.997649 0.997758 0.99697 0.994743 0.995088 0.993195 0.995631 0.997649 0.996253 0.99697 0.995445 0.998099 1.00024 0.996319 1.00073 1.0006 1.0011 1.00107 1.00285 1.00024 1.00258 1.00073 1.00458 1.0011 1.00366 1.00285 1.00441 0.996319 1.00073 0.99714 1.00046 1.00107 1.00285 1.00077 1.00294 1.00073 1.00458 1.00046 1.00634 1.00285 1.00441 1.00294 1.00912 1.0006 1.0011 1.00107 1.00285 1.0026 1.00353 1.00468 1.00441 1.0011 1.00366 1.00285 1.00441 1.00353 1.00594 1.00441 1.00776 1.00107 1.00285 1.00077 1.00294 1.00468 1.00441 1.00497 1.00703 1.00285 1.00441 1.00294 1.00912 1.00441 1.00776 1.00703 1.00735 1.00258 1.00313 1.00458 1.0055 1.00366 1.00455 1.00441 1.0055 1.00313 1.00349 1.0055 1.00819 1.00455 1.00479 1.0055 1.00598 1.00458 1.0055 1.00634 1.00902 1.00441 1.0055 1.00912 1.01446 1.0055 1.00819 1.00902 1.01233 1.0055 1.00598 1.01446 1.01561 1.00366 1.00455 1.00441 1.0055 1.00594 1.00643 1.00776 1.00711 1.00455 1.00479 1.0055 1.00598 1.00643 1.00777 1.00711 1.00786 1.00441 1.0055 1.00912 1.01446 1.00776 1.00711 1.00735 1.01221 1.0055 1.00598 1.01446 1.01561 1.00711 1.00786 1.01221 1.00598 1.0026 1.00353 1.00468 1.00441 1.00204 1.00509 1.00702 1.00408 1.00353 1.00594 1.00441 1.00776 1.00509 1.00643 1.00408 1.00711 1.00468 1.00441 1.00497 1.00703 1.00702 1.00408 1.00813 1.00914 1.00441 1.00776 1.00703 1.00735 1.00408 1.00711 1.00914 1.01221 1.00204 1.00509 1.00702 1.00408 1.00393 1.00241 1.00845 1.00766 1.00509 1.00643 1.00408 1.00711 1.00241 1.00777 1.00766 1.00786 1.00702 1.00408 1.00813 1.00914 1.00845 1.00766 1.01168 1.01031 1.00408 1.00711 1.00914 1.01221 1.00766 1.00786 1.01031 1.00598 0.998099 1.00024 1.0006 1.0011 0.999261 1.00093 1.00069 1.00177 1.00024 1.00258 1.0011 1.00366 1.00093 1.00313 1.00177 1.00455 1.0006 1.0011 1.0026 1.00353 1.00069 1.00177 1.00204 1.00509 1.0011 1.00366 1.00353 1.00594 1.00177 1.00455 1.00509 1.00643 0.999261 1.00093 1.00069 1.00177 0.999704 1.00116 1.00085 1.00142 1.00093 1.00313 1.00177 1.00455 1.00116 1.00349 1.00142 1.00479 1.00069 1.00177 1.00204 1.00509 1.00085 1.00142 1.00393 1.00241 1.00177 1.00455 1.00509 1.00643 1.00142 1.00479 1.00241 1.00777 1.00257 1.00263 1.00676 1.00719 1.00324 1.00455 1.00653 1.00532 1.00263 1.00228 1.00719 1.0037 1.00455 1.00467 1.00532 1.00534 1.00676 1.00719 1.00773 1.01071 1.00653 1.00532 1.01117 1.00905 1.00719 1.0037 1.01071 1.0046 1.00532 1.00534 1.00905 1.00581 1.00324 1.00455 1.00653 1.00532 1.00598 1.00636 1.00811 1.00804 1.00455 1.00467 1.00532 1.00534 1.00636 1.00572 1.00804 1.00657 1.00653 1.00532 1.01117 1.00905 1.00811 1.00804 1.01146 1.01028 1.00532 1.00534 1.00905 1.00581 1.00804 1.00657 1.01028 1.00683 1.00228 0.999889 1.0037 0.999705 1.00467 1.00221 1.00534 1.00318 0.999889 0.998278 0.999705 0.998104 1.00221 1.00055 1.00318 1.00082 1.0037 0.999705 1.0046 0.999721 1.00534 1.00318 1.00581 1.0043 0.999705 0.998104 0.999721 0.993679 1.00318 1.00082 1.0043 1.00108 1.00467 1.00221 1.00534 1.00318 1.00572 1.0028 1.00657 1.00627 1.00221 1.00055 1.00318 1.00082 1.0028 1.00312 1.00627 1.00463 1.00534 1.00318 1.00581 1.0043 1.00657 1.00627 1.00683 1.00523 1.00318 1.00082 1.0043 1.00108 1.00627 1.00463 1.00523 1.00647 1.00598 1.00636 1.00811 1.00804 1.00486 1.00459 1.00831 1.00566 1.00636 1.00572 1.00804 1.00657 1.00459 1.0028 1.00566 1.00627 1.00811 1.00804 1.01146 1.01028 1.00831 1.00566 1.01266 1.00621 1.00804 1.00657 1.01028 1.00683 1.00566 1.00627 1.00621 1.00523 1.00486 1.00459 1.00831 1.00566 1.00216 1.00293 1.00522 1.00586 1.00459 1.0028 1.00566 1.00627 1.00293 1.00312 1.00586 1.00463 1.00831 1.00566 1.01266 1.00621 1.00522 1.00586 1.01355 1.0078 1.00566 1.00627 1.00621 1.00523 1.00586 1.00463 1.0078 1.00647 1.00257 1.00263 1.00324 1.00455 1.00098 1.00076 1.00277 1.00268 1.00263 1.00228 1.00455 1.00467 1.00076 0.999889 1.00268 1.00221 1.00324 1.00455 1.00598 1.00636 1.00277 1.00268 1.00486 1.00459 1.00455 1.00467 1.00636 1.00572 1.00268 1.00221 1.00459 1.0028 1.00098 1.00076 1.00277 1.00268 0.999704 0.999549 1.00157 1.00091 1.00076 0.999889 1.00268 1.00221 0.999549 0.998278 1.00091 1.00055 1.00277 1.00268 1.00486 1.00459 1.00157 1.00091 1.00216 1.00293 1.00268 1.00221 1.00459 1.0028 1.00091 1.00055 1.00293 1.00312 1.00257 1.00324 1.00676 1.00653 1.00242 1.00156 1.00739 1.00527 1.00324 1.00598 1.00653 1.00811 1.00156 1.00626 1.00527 1.00827 1.00676 1.00653 1.00773 1.01117 1.00739 1.00527 1.00635 1.00514 1.00653 1.00811 1.01117 1.01146 1.00527 1.00827 1.00514 1.00308 1.00242 1.00156 1.00739 1.00527 1.00172 1.00264 1.00388 1.00625 1.00156 1.00626 1.00527 1.00827 1.00264 1.00487 1.00625 1.00813 1.00739 1.00527 1.00635 1.00514 1.00388 1.00625 1.0048 1.0073 1.00527 1.00827 1.00514 1.00308 1.00625 1.00813 1.0073 1.00784 1.00598 1.00486 1.00811 1.00831 1.00626 1.00298 1.00827 1.00532 1.00486 1.00216 1.00831 1.00522 1.00298 1.00354 1.00532 1.00776 1.00811 1.00831 1.01146 1.01266 1.00827 1.00532 1.00308 1.01041 1.00831 1.00522 1.01266 1.01355 1.00532 1.00776 1.01041 1.01144 1.00626 1.00298 1.00827 1.00532 1.00487 1.00334 1.00813 1.00633 1.00298 1.00354 1.00532 1.00776 1.00334 1.00174 1.00633 1.00376 1.00827 1.00532 1.00308 1.01041 1.00813 1.00633 1.00784 1.0118 1.00532 1.00776 1.01041 1.01144 1.00633 1.00376 1.0118 1.00414 1.00172 1.00264 1.00388 1.00625 0.99982 1.00194 0.999752 1.00279 1.00264 1.00487 1.00625 1.00813 1.00194 1.00334 1.00279 1.00633 1.00388 1.00625 1.0048 1.0073 0.999752 1.00279 0.999726 1.00406 1.00625 1.00813 1.0073 1.00784 1.00279 1.00633 1.00406 1.0118 0.99982 1.00194 0.999752 1.00279 0.998476 1.00022 0.996498 1.0004 1.00194 1.00334 1.00279 1.00633 1.00022 1.00174 1.0004 1.00376 0.999752 1.00279 0.999726 1.00406 0.996498 1.0004 0.994898 1.00034 1.00279 1.00633 1.00406 1.0118 1.0004 1.00376 1.00034 1.00414 1.00257 1.00324 1.00242 1.00156 1.00098 1.00277 1.00071 1.00294 1.00324 1.00598 1.00156 1.00626 1.00277 1.00486 1.00294 1.00298 1.00242 1.00156 1.00172 1.00264 1.00071 1.00294 0.99982 1.00194 1.00156 1.00626 1.00264 1.00487 1.00294 1.00298 1.00194 1.00334 1.00098 1.00277 1.00071 1.00294 0.999704 1.00157 0.999071 1.00074 1.00277 1.00486 1.00294 1.00298 1.00157 1.00216 1.00074 1.00354 1.00071 1.00294 0.99982 1.00194 0.999071 1.00074 0.998476 1.00022 1.00294 1.00298 1.00194 1.00334 1.00074 1.00354 1.00022 1.00174 0.997886 1.00044 0.997277 1.00096 1.00024 1.00161 1.00019 1.00295 1.00044 1.00147 1.00096 1.00382 1.00161 1.00468 1.00295 1.00574 0.997277 1.00096 0.994158 1.00084 1.00019 1.00295 0.999583 1.00295 1.00096 1.00382 1.00084 1.00939 1.00295 1.00574 1.00295 1.00453 1.00024 1.00161 1.00019 1.00295 1.00267 1.00233 1.00412 1.00542 1.00161 1.00468 1.00295 1.00574 1.00233 1.0051 1.00542 1.00707 1.00019 1.00295 0.999583 1.00295 1.00412 1.00542 1.00283 1.00736 1.00295 1.00574 1.00295 1.00453 1.00542 1.00707 1.00736 1.01335 1.00147 1.00256 1.00382 1.00539 1.00468 1.00243 1.00574 1.0084 1.00256 1.00406 1.00539 1.00537 1.00243 1.00413 1.0084 1.0055 1.00382 1.00539 1.00939 1.01012 1.00574 1.0084 1.00453 1.01399 1.00539 1.00537 1.01012 1.01528 1.0084 1.0055 1.01399 1.00813 1.00468 1.00243 1.00574 1.0084 1.0051 1.00365 1.00707 1.00444 1.00243 1.00413 1.0084 1.0055 1.00365 1.00433 1.00444 1.00711 1.00574 1.0084 1.00453 1.01399 1.00707 1.00444 1.01335 1.01092 1.0084 1.0055 1.01399 1.00813 1.00444 1.00711 1.01092 1.00726 1.00267 1.00233 1.00412 1.00542 1.00321 1.00483 1.00448 1.00563 1.00233 1.0051 1.00542 1.00707 1.00483 1.00365 1.00563 1.00444 1.00412 1.00542 1.00283 1.00736 1.00448 1.00563 1.01136 1.0077 1.00542 1.00707 1.00736 1.01335 1.00563 1.00444 1.0077 1.01092 1.00321 1.00483 1.00448 1.00563 1.00349 1.00454 1.00819 1.00779 1.00483 1.00365 1.00563 1.00444 1.00454 1.00433 1.00779 1.00711 1.00448 1.00563 1.01136 1.0077 1.00819 1.00779 1.01233 1.0122 1.00563 1.00444 1.0077 1.01092 1.00779 1.00711 1.0122 1.00726 0.997886 1.00044 1.00024 1.00161 0.999449 1.001 1.00119 1.00249 1.00044 1.00147 1.00161 1.00468 1.001 1.00256 1.00249 1.00243 1.00024 1.00161 1.00267 1.00233 1.00119 1.00249 1.00321 1.00483 1.00161 1.00468 1.00233 1.0051 1.00249 1.00243 1.00483 1.00365 0.999449 1.001 1.00119 1.00249 0.999704 1.00098 1.00116 1.00204 1.001 1.00256 1.00249 1.00243 1.00098 1.00406 1.00204 1.00413 1.00119 1.00249 1.00321 1.00483 1.00116 1.00204 1.00349 1.00454 1.00249 1.00243 1.00483 1.00365 1.00204 1.00413 1.00454 1.00433 0.998278 1.00001 0.998104 0.999661 1.00055 1.00178 1.00082 1.0026 1.00001 1.00252 0.999661 1.00324 1.00178 1.00227 1.0026 1.00466 0.998104 0.999661 0.993679 0.999698 1.00082 1.0026 1.00108 1.00181 0.999661 1.00324 0.999698 1.00123 1.0026 1.00466 1.00181 1.00158 1.00055 1.00178 1.00082 1.0026 1.00312 1.00246 1.00463 1.00335 1.00178 1.00227 1.0026 1.00466 1.00246 1.00185 1.00335 1.00578 1.00082 1.0026 1.00108 1.00181 1.00463 1.00335 1.00647 1.0065 1.0026 1.00466 1.00181 1.00158 1.00335 1.00578 1.0065 1.00953 1.00304 1.0053 1.00874 1.0072 1.00265 1.00345 1.00571 1.00846 1.0053 1.00654 1.0072 1.01017 1.00345 1.0054 1.00846 1.00722 1.00874 1.0072 1.01009 1.01027 1.00571 1.00846 1.00794 1.01239 1.0072 1.01017 1.01027 1.01146 1.00846 1.00722 1.01239 1.00992 1.00265 1.00345 1.00571 1.00846 1.00252 1.00227 1.00324 1.00466 1.00345 1.0054 1.00846 1.00722 1.00227 1.00185 1.00466 1.00578 1.00571 1.00846 1.00794 1.01239 1.00324 1.00466 1.00123 1.00158 1.00846 1.00722 1.01239 1.00992 1.00466 1.00578 1.00158 1.00953 1.00216 1.00293 1.00522 1.00586 1.00387 1.00311 1.00647 1.00586 1.00293 1.00312 1.00586 1.00463 1.00311 1.00246 1.00586 1.00335 1.00522 1.00586 1.01355 1.0078 1.00647 1.00586 1.00702 1.01027 1.00586 1.00463 1.0078 1.00647 1.00586 1.00335 1.01027 1.0065 1.00387 1.00311 1.00647 1.00586 1.00654 1.0054 1.01017 1.00722 1.00311 1.00246 1.00586 1.00335 1.0054 1.00185 1.00722 1.00578 1.00647 1.00586 1.00702 1.01027 1.01017 1.00722 1.01146 1.00992 1.00586 1.00335 1.01027 1.0065 1.00722 1.00578 1.00992 1.00953 0.999704 0.999549 1.00157 1.00091 1.00144 1.0006 1.00294 1.00162 0.999549 0.998278 1.00091 1.00055 1.0006 1.00001 1.00162 1.00178 1.00157 1.00091 1.00216 1.00293 1.00294 1.00162 1.00387 1.00311 1.00091 1.00055 1.00293 1.00312 1.00162 1.00178 1.00311 1.00246 1.00144 1.0006 1.00294 1.00162 1.00304 1.00265 1.0053 1.00345 1.0006 1.00001 1.00162 1.00178 1.00265 1.00252 1.00345 1.00227 1.00294 1.00162 1.00387 1.00311 1.0053 1.00345 1.00654 1.0054 1.00162 1.00178 1.00311 1.00246 1.00345 1.00227 1.0054 1.00185 1.00266 1.00264 1.00368 1.00581 1.00026 1.00222 1.0003 1.00388 1.00264 1.00501 1.00581 1.00733 1.00222 1.00407 1.00388 1.00502 1.00368 1.00581 1.00613 1.00819 1.0003 1.00388 1.00027 1.00425 1.00581 1.00733 1.00819 1.00474 1.00388 1.00502 1.00425 1.00792 1.00026 1.00222 1.0003 1.00388 0.998212 1.00074 0.996254 1.00082 1.00222 1.00407 1.00388 1.00502 1.00074 1.0021 1.00082 1.00545 1.0003 1.00388 1.00027 1.00425 0.996254 1.00082 0.995534 1.00069 1.00388 1.00502 1.00425 1.00792 1.00082 1.00545 1.00069 1.00663 1.00266 1.00369 1.00368 1.00452 1.00264 1.00443 1.00581 1.00701 1.00369 1.00257 1.00452 1.00676 1.00443 1.00226 1.00701 1.00691 1.00368 1.00452 1.00613 1.01515 1.00581 1.00701 1.00819 1.00507 1.00452 1.00676 1.01515 1.00773 1.00701 1.00691 1.00507 1.00664 1.00264 1.00443 1.00581 1.00701 1.00501 1.00473 1.00733 1.0068 1.00443 1.00226 1.00701 1.00691 1.00473 1.00607 1.0068 1.00643 1.00581 1.00701 1.00819 1.00507 1.00733 1.0068 1.00474 1.00989 1.00701 1.00691 1.00507 1.00664 1.0068 1.00643 1.00989 1.01203 1.00501 1.00473 1.00733 1.0068 1.00407 1.00388 1.00502 1.0077 1.00473 1.00607 1.0068 1.00643 1.00388 1.00347 1.0077 1.00605 1.00733 1.0068 1.00474 1.00