# vtk DataFile Version 3.0
#This file was generated by the deal.II library on 2025/4/17 at 14:11:29
ASCII
DATASET UNSTRUCTURED_GRID

POINTS 8192 double
-0.35332 3.47278e-05 -0.353921
-0.461742 -0.00167332 -0.298199
-0.528591 -0.0100672 -0.529192
-0.639124 -0.00989942 -0.423793
-0.414134 -0.117306 -0.299906
-0.507651 -0.10577 -0.258234
-0.591087 -0.165822 -0.431932
-0.676928 -0.144508 -0.35608
-0.461742 -0.00167332 -0.298199
-0.568756 2.92707e-05 -0.235975
-0.639124 -0.00989942 -0.423793
-0.743583 -0.00567213 -0.311731
-0.507651 -0.10577 -0.258234
-0.600213 -0.0913669 -0.212326
-0.676928 -0.144508 -0.35608
-0.759097 -0.120656 -0.276752
-0.528591 -0.0100672 -0.529192
-0.639124 -0.00989942 -0.423793
-0.706884 2.83076e-05 -0.707461
-0.821362 -0.00284766 -0.548389
-0.591087 -0.165822 -0.431932
-0.676928 -0.144508 -0.35608
-0.773638 -0.202649 -0.563621
-0.851501 -0.174037 -0.451607
-0.639124 -0.00989942 -0.423793
-0.743583 -0.00567213 -0.311731
-0.821362 -0.00284766 -0.548389
-0.923597 2.57261e-05 -0.382932
-0.676928 -0.144508 -0.35608
-0.759097 -0.120656 -0.276752
-0.851501 -0.174037 -0.451607
-0.922558 -0.142827 -0.33731
-0.414134 -0.117306 -0.299906
-0.507651 -0.10577 -0.258234
-0.591087 -0.165822 -0.431932
-0.676928 -0.144508 -0.35608
-0.471145 -0.235613 -0.235981
-0.550455 -0.211133 -0.211501
-0.644936 -0.320026 -0.320395
-0.70855 -0.279049 -0.279418
-0.507651 -0.10577 -0.258234
-0.600213 -0.0913669 -0.212326
-0.676928 -0.144508 -0.35608
-0.759097 -0.120656 -0.276752
-0.550455 -0.211133 -0.211501
-0.629118 -0.184214 -0.184512
-0.70855 -0.279049 -0.279418
-0.770093 -0.23655 -0.236848
-0.591087 -0.165822 -0.431932
-0.676928 -0.144508 -0.35608
-0.773638 -0.202649 -0.563621
-0.851501 -0.174037 -0.451607
-0.644936 -0.320026 -0.320395
-0.70855 -0.279049 -0.279418
-0.824781 -0.399479 -0.399822
-0.87136 -0.34273 -0.343074
-0.676928 -0.144508 -0.35608
-0.759097 -0.120656 -0.276752
-0.851501 -0.174037 -0.451607
-0.922558 -0.142827 -0.33731
-0.70855 -0.279049 -0.279418
-0.770093 -0.23655 -0.236848
-0.87136 -0.34273 -0.343074
-0.914602 -0.285363 -0.285638
-0.568756 2.92707e-05 -0.235975
-0.536569 -0.00241295 -0.116029
-0.743583 -0.00567213 -0.311731
-0.74905 -0.0104254 -0.159142
-0.600213 -0.0913669 -0.212326
-0.57009 -0.105866 -0.106075
-0.759097 -0.120656 -0.276752
-0.757282 -0.142354 -0.142563
-0.536569 -0.00241295 -0.116029
-0.499676 3.52212e-05 -7.47752e-05
-0.74905 -0.0104254 -0.159142
-0.74536 -0.00990607 -0.0100161
-0.57009 -0.105866 -0.106075
-0.536557 -0.115816 -0.00251795
-0.757282 -0.142354 -0.142563
-0.749039 -0.158929 -0.0105304
-0.743583 -0.00567213 -0.311731
-0.74905 -0.0104254 -0.159142
-0.923597 2.57261e-05 -0.382932
-0.969068 -0.00330012 -0.190794
-0.759097 -0.120656 -0.276752
-0.757282 -0.142354 -0.142563
-0.922558 -0.142827 -0.33731
-0.950907 -0.169882 -0.170066
-0.74905 -0.0104254 -0.159142
-0.74536 -0.00990607 -0.0100161
-0.969068 -0.00330012 -0.190794
-0.999637 3.68257e-05 -6.44253e-05
-0.757282 -0.142354 -0.142563
-0.749039 -0.158929 -0.0105304
-0.950907 -0.169882 -0.170066
-0.969038 -0.190603 -0.00339421
-0.600213 -0.0913669 -0.212326
-0.57009 -0.105866 -0.106075
-0.759097 -0.120656 -0.276752
-0.757282 -0.142354 -0.142563
-0.629118 -0.184214 -0.184512
-0.600176 -0.211975 -0.091546
-0.770093 -0.23655 -0.236848
-0.759061 -0.276401 -0.120835
-0.57009 -0.105866 -0.106075
-0.536557 -0.115816 -0.00251795
-0.757282 -0.142354 -0.142563
-0.749039 -0.158929 -0.0105304
-0.600176 -0.211975 -0.091546
-0.568713 -0.23561 -6.24963e-05
-0.759061 -0.276401 -0.120835
-0.74354 -0.311366 -0.0057639
-0.759097 -0.120656 -0.276752
-0.757282 -0.142354 -0.142563
-0.922558 -0.142827 -0.33731
-0.950907 -0.169882 -0.170066
-0.770093 -0.23655 -0.236848
-0.759061 -0.276401 -0.120835
-0.914602 -0.285363 -0.285638
-0.922507 -0.336978 -0.142983
-0.757282 -0.142354 -0.142563
-0.749039 -0.158929 -0.0105304
-0.950907 -0.169882 -0.170066
-0.969038 -0.190603 -0.00339421
-0.759061 -0.276401 -0.120835
-0.74354 -0.311366 -0.0057639
-0.922507 -0.336978 -0.142983
-0.923525 -0.382583 -5.38683e-05
-0.471145 -0.235613 -0.235981
-0.550455 -0.211133 -0.211501
-0.644936 -0.320026 -0.320395
-0.70855 -0.279049 -0.279418
-0.414096 -0.299398 -0.117521
-0.507613 -0.257725 -0.105986
-0.591049 -0.431423 -0.166037
-0.67689 -0.355571 -0.144723
-0.550455 -0.211133 -0.211501
-0.629118 -0.184214 -0.184512
-0.70855 -0.279049 -0.279418
-0.770093 -0.23655 -0.236848
-0.507613 -0.257725 -0.105986
-0.600176 -0.211975 -0.091546
-0.67689 -0.355571 -0.144723
-0.759061 -0.276401 -0.120835
-0.644936 -0.320026 -0.320395
-0.70855 -0.279049 -0.279418
-0.824781 -0.399479 -0.399822
-0.87136 -0.34273 -0.343074
-0.591049 -0.431423 -0.166037
-0.67689 -0.355571 -0.144723
-0.773571 -0.563117 -0.202835
-0.851434 -0.451103 -0.174223
-0.70855 -0.279049 -0.279418
-0.770093 -0.23655 -0.236848
-0.87136 -0.34273 -0.343074
-0.914602 -0.285363 -0.285638
-0.67689 -0.355571 -0.144723
-0.759061 -0.276401 -0.120835
-0.851434 -0.451103 -0.174223
-0.922507 -0.336978 -0.142983
-0.414096 -0.299398 -0.117521
-0.507613 -0.257725 -0.105986
-0.591049 -0.431423 -0.166037
-0.67689 -0.355571 -0.144723
-0.353289 -0.353371 -7.15622e-05
-0.461711 -0.29765 -0.00177961
-0.528561 -0.528643 -0.0101735
-0.639093 -0.423244 -0.0100057
-0.507613 -0.257725 -0.105986
-0.600176 -0.211975 -0.091546
-0.67689 -0.355571 -0.144723
-0.759061 -0.276401 -0.120835
-0.461711 -0.29765 -0.00177961
-0.568713 -0.23561 -6.24963e-05
-0.639093 -0.423244 -0.0100057
-0.74354 -0.311366 -0.0057639
-0.591049 -0.431423 -0.166037
-0.67689 -0.355571 -0.144723
-0.773571 -0.563117 -0.202835
-0.851434 -0.451103 -0.174223
-0.528561 -0.528643 -0.0101735
-0.639093 -0.423244 -0.0100057
-0.706812 -0.706901 -6.26392e-05
-0.82129 -0.54783 -0.00293861
-0.67689 -0.355571 -0.144723
-0.759061 -0.276401 -0.120835
-0.851434 -0.451103 -0.174223
-0.922507 -0.336978 -0.142983
-0.639093 -0.423244 -0.0100057
-0.74354 -0.311366 -0.0057639
-0.82129 -0.54783 -0.00293861
-0.923525 -0.382583 -5.38683e-05
-0.35332 3.47278e-05 -0.353921
-0.461742 -0.00167332 -0.298199
-0.414134 -0.117306 -0.299906
-0.507651 -0.10577 -0.258234
-0.173928 -0.014457 -0.174409
-0.353489 -0.0141292 -0.152664
-0.294204 -0.154831 -0.155149
-0.431799 -0.134098 -0.134416
-0.461742 -0.00167332 -0.298199
-0.568756 2.92707e-05 -0.235975
-0.507651 -0.10577 -0.258234
-0.600213 -0.0913669 -0.212326
-0.353489 -0.0141292 -0.152664
-0.536569 -0.00241295 -0.116029
-0.431799 -0.134098 -0.134416
-0.57009 -0.105866 -0.106075
-0.414134 -0.117306 -0.299906
-0.507651 -0.10577 -0.258234
-0.471145 -0.235613 -0.235981
-0.550455 -0.211133 -0.211501
-0.294204 -0.154831 -0.155149
-0.431799 -0.134098 -0.134416
-0.414096 -0.299398 -0.117521
-0.507613 -0.257725 -0.105986
-0.507651 -0.10577 -0.258234
-0.600213 -0.0913669 -0.212326
-0.550455 -0.211133 -0.211501
-0.629118 -0.184214 -0.184512
-0.431799 -0.134098 -0.134416
-0.57009 -0.105866 -0.106075
-0.507613 -0.257725 -0.105986
-0.600176 -0.211975 -0.091546
-0.173928 -0.014457 -0.174409
-0.353489 -0.0141292 -0.152664
-0.294204 -0.154831 -0.155149
-0.431799 -0.134098 -0.134416
0.000159123 5.28567e-05 -0.000113593
-0.243637 -0.0125747 -0.0127411
-0.173975 -0.174081 -0.0146135
-0.353535 -0.152336 -0.0142857
-0.353489 -0.0141292 -0.152664
-0.536569 -0.00241295 -0.116029
-0.431799 -0.134098 -0.134416
-0.57009 -0.105866 -0.106075
-0.243637 -0.0125747 -0.0127411
-0.499676 3.52212e-05 -7.47752e-05
-0.353535 -0.152336 -0.0142857
-0.536557 -0.115816 -0.00251795
-0.294204 -0.154831 -0.155149
-0.431799 -0.134098 -0.134416
-0.414096 -0.299398 -0.117521
-0.507613 -0.257725 -0.105986
-0.173975 -0.174081 -0.0146135
-0.353535 -0.152336 -0.0142857
-0.353289 -0.353371 -7.15622e-05
-0.461711 -0.29765 -0.00177961
-0.431799 -0.134098 -0.134416
-0.57009 -0.105866 -0.106075
-0.507613 -0.257725 -0.105986
-0.600176 -0.211975 -0.091546
-0.353535 -0.152336 -0.0142857
-0.536557 -0.115816 -0.00251795
-0.461711 -0.29765 -0.00177961
-0.568713 -0.23561 -6.24963e-05
0.353376 -1.42874e-05 0.353896
0.411005 0.117647 0.285661
0.537241 -0.0281921 0.537761
0.596585 0.137244 0.402699
0.459816 -0.00426542 0.291431
0.503403 0.102384 0.243363
0.641477 -0.0301302 0.418134
0.678081 0.118465 0.329515
0.411005 0.117647 0.285661
0.471195 0.235632 0.235953
0.596585 0.137244 0.402699
0.660837 0.312196 0.312488
0.503403 0.102384 0.243363
0.548369 0.208409 0.208727
0.678081 0.118465 0.329515
0.717403 0.269642 0.269945
0.537241 -0.0281921 0.537761
0.596585 0.137244 0.402699
0.706946 -9.36989e-06 0.707437
0.757644 0.193308 0.52002
0.641477 -0.0301302 0.418134
0.678081 0.118465 0.329515
0.807711 -0.0161569 0.544824
0.831422 0.161692 0.422068
0.596585 0.137244 0.402699
0.660837 0.312196 0.312488
0.757644 0.193308 0.52002
0.816312 0.40818 0.408423
0.678081 0.118465 0.329515
0.717403 0.269642 0.269945
0.831422 0.161692 0.422068
0.859722 0.34667 0.34693
0.459816 -0.00426542 0.291431
0.503403 0.102384 0.243363
0.641477 -0.0301302 0.418134
0.678081 0.118465 0.329515
0.568805 -1.40654e-05 0.235951
0.598267 0.0930811 0.206123
0.753676 -0.0138316 0.304433
0.766396 0.108325 0.259105
0.503403 0.102384 0.243363
0.548369 0.208409 0.208727
0.678081 0.118465 0.329515
0.717403 0.269642 0.269945
0.598267 0.0930811 0.206123
0.628311 0.185097 0.185348
0.766396 0.108325 0.259105
0.780623 0.229476 0.229725
0.641477 -0.0301302 0.418134
0.678081 0.118465 0.329515
0.807711 -0.0161569 0.544824
0.831422 0.161692 0.422068
0.753676 -0.0138316 0.304433
0.766396 0.108325 0.259105
0.923649 -1.20576e-05 0.382904
0.917293 0.143658 0.322987
0.678081 0.118465 0.329515
0.717403 0.269642 0.269945
0.831422 0.161692 0.422068
0.859722 0.34667 0.34693
0.766396 0.108325 0.259105
0.780623 0.229476 0.229725
0.917293 0.143658 0.322987
0.913713 0.286876 0.287092
0.471195 0.235632 0.235953
0.410954 0.285199 0.117814
0.660837 0.312196 0.312488
0.596535 0.402255 0.137398
0.548369 0.208409 0.208727
0.503352 0.242902 0.10255
0.717403 0.269642 0.269945
0.67803 0.329064 0.118623
0.410954 0.285199 0.117814
0.353325 0.353391 3.62205e-05
0.596535 0.402255 0.137398
[...]
POINT_DATA 8192
SCALARS M_0 double 1
LOOKUP_TABLE default
0.998035 1.00101 0.996207 1.00106 0.999916 1.00171 0.999996 1.00213 1.00101 1.00199 1.00106 1.00538 1.00171 1.00285 1.00213 1.00409 0.996207 1.00106 0.995462 1.00084 0.999996 1.00213 0.999995 1.00244 1.00106 1.00538 1.00084 1.00662 1.00213 1.00409 1.00244 1.00347 0.999916 1.00171 0.999996 1.00213 1.00232 1.0027 1.00411 1.00392 1.00171 1.00285 1.00213 1.00409 1.0027 1.00439 1.00392 1.00676 0.999996 1.00213 0.999995 1.00244 1.00411 1.00392 1.00208 1.00269 1.00213 1.00409 1.00244 1.00347 1.00392 1.00676 1.00269 1.00987 1.00199 1.00242 1.00538 1.00433 1.00285 1.00318 1.00409 1.00563 1.00242 1.00237 1.00433 1.00784 1.00318 1.00255 1.00563 1.00536 1.00538 1.00433 1.00662 1.00607 1.00409 1.00563 1.00347 1.0055 1.00433 1.00784 1.00607 1.0118 1.00563 1.00536 1.0055 1.0151 1.00285 1.00318 1.00409 1.00563 1.00439 1.0055 1.00676 1.00555 1.00318 1.00255 1.00563 1.00536 1.0055 1.00638 1.00555 1.0044 1.00409 1.00563 1.00347 1.0055 1.00676 1.00555 1.00987 1.01035 1.00563 1.00536 1.0055 1.0151 1.00555 1.0044 1.01035 1.00886 1.00232 1.0027 1.00411 1.00392 1.0017 1.00315 1.00521 1.006 1.0027 1.00439 1.00392 1.00676 1.00315 1.0055 1.006 1.00555 1.00411 1.00392 1.00208 1.00269 1.00521 1.006 1.00742 1.00915 1.00392 1.00676 1.00269 1.00987 1.006 1.00555 1.00915 1.01035 1.0017 1.00315 1.00521 1.006 1.00464 1.0024 1.00631 1.00462 1.00315 1.0055 1.006 1.00555 1.0024 1.00638 1.00462 1.0044 1.00521 1.006 1.00742 1.00915 1.00631 1.00462 1.01288 1.00679 1.006 1.00555 1.00915 1.01035 1.00462 1.0044 1.00679 1.00886 0.998035 1.00101 0.999916 1.00171 0.999198 1.00077 1.00084 1.00162 1.00101 1.00199 1.00171 1.00285 1.00077 1.00242 1.00162 1.00318 0.999916 1.00171 1.00232 1.0027 1.00084 1.00162 1.0017 1.00315 1.00171 1.00285 1.0027 1.00439 1.00162 1.00318 1.00315 1.0055 0.999198 1.00077 1.00084 1.00162 0.999406 1.00019 1.00067 1.0011 1.00077 1.00242 1.00162 1.00318 1.00019 1.00237 1.0011 1.00255 1.00084 1.00162 1.0017 1.00315 1.00067 1.0011 1.00464 1.0024 1.00162 1.00318 1.00315 1.0055 1.0011 1.00255 1.0024 1.00638 0.997739 1.00018 0.997287 1.00046 1.00049 1.0022 1.00103 1.00236 1.00018 1.0023 1.00046 1.0043 1.0022 1.00371 1.00236 1.00634 0.997287 1.00046 0.994079 1.00106 1.00103 1.00236 1.00088 1.0022 1.00046 1.0043 1.00106 1.00696 1.00236 1.00634 1.0022 1.00608 1.00049 1.0022 1.00103 1.00236 1.00119 1.00367 1.00368 1.00545 1.0022 1.00371 1.00236 1.00634 1.00367 1.00293 1.00545 1.0051 1.00103 1.00236 1.00088 1.0022 1.00368 1.00545 1.00928 1.00884 1.00236 1.00634 1.0022 1.00608 1.00545 1.0051 1.00884 1.0088 1.0023 1.00246 1.0043 1.00754 1.00371 1.00441 1.00634 1.00643 1.00246 1.00308 1.00754 1.00874 1.00441 1.00305 1.00643 1.00609 1.0043 1.00754 1.00696 1.00912 1.00634 1.00643 1.00608 1.01261 1.00754 1.00874 1.00912 1.01025 1.00643 1.00609 1.01261 1.00748 1.00371 1.00441 1.00634 1.00643 1.00293 1.00542 1.0051 1.00595 1.00441 1.00305 1.00643 1.00609 1.00542 1.00601 1.00595 1.0087 1.00634 1.00643 1.00608 1.01261 1.0051 1.00595 1.0088 1.00874 1.00643 1.00609 1.01261 1.00748 1.00595 1.0087 1.00874 1.00596 1.00119 1.00367 1.00368 1.00545 1.00231 1.00498 1.00515 1.00791 1.00367 1.00293 1.00545 1.0051 1.00498 1.00542 1.00791 1.00595 1.00368 1.00545 1.00928 1.00884 1.00515 1.00791 1.01005 1.00738 1.00545 1.0051 1.00884 1.0088 1.00791 1.00595 1.00738 1.00874 1.00231 1.00498 1.00515 1.00791 1.00378 1.00408 1.00513 1.00519 1.00498 1.00542 1.00791 1.00595 1.00408 1.00601 1.00519 1.0087 1.00515 1.00791 1.01005 1.00738 1.00513 1.00519 1.01521 1.01156 1.00791 1.00595 1.00738 1.00874 1.00519 1.0087 1.01156 1.00596 0.997739 1.00018 1.00049 1.0022 0.999319 1.00079 1.00067 1.00248 1.00018 1.0023 1.0022 1.00371 1.00079 1.00246 1.00248 1.00441 1.00049 1.0022 1.00119 1.00367 1.00067 1.00248 1.00231 1.00498 1.0022 1.00371 1.00367 1.00293 1.00248 1.00441 1.00498 1.00542 0.999319 1.00079 1.00067 1.00248 0.999406 1.00194 1.00105 1.00113 1.00079 1.00246 1.00248 1.00441 1.00194 1.00308 1.00113 1.00305 1.00067 1.00248 1.00231 1.00498 1.00105 1.00113 1.00378 1.00408 1.00248 1.00441 1.00498 1.00542 1.00113 1.00305 1.00408 1.00601 0.993626 0.993193 0.982733 0.98914 0.99419 0.991653 0.990974 0.984279 0.993193 0.992876 0.98914 0.989198 0.991653 0.991039 0.984279 0.988341 0.982733 0.98914 0.98356 0.9692 0.990974 0.984279 0.97924 0.983469 0.98914 0.989198 0.9692 0.985979 0.984279 0.988341 0.983469 0.976901 0.99419 0.991653 0.990974 0.984279 0.990411 0.990832 0.986718 0.987857 0.991653 0.991039 0.984279 0.988341 0.990832 0.99362 0.987857 0.993051 0.990974 0.984279 0.97924 0.983469 0.986718 0.987857 0.978724 0.984926 0.984279 0.988341 0.983469 0.976901 0.987857 0.993051 0.984926 0.978563 0.992876 0.996034 0.989198 0.994102 0.991039 0.996708 0.988341 0.988717 0.996034 0.998817 0.994102 0.997296 0.996708 0.995596 0.988717 0.993224 0.989198 0.994102 0.985979 0.990686 0.988341 0.988717 0.976901 0.990046 0.994102 0.997296 0.990686 0.993372 0.988717 0.993224 0.990046 0.992944 0.991039 0.996708 0.988341 0.988717 0.99362 0.994494 0.993051 0.987003 0.996708 0.995596 0.988717 0.993224 0.994494 0.99552 0.987003 0.993329 0.988341 0.988717 0.976901 0.990046 0.993051 0.987003 0.978563 0.984768 0.988717 0.993224 0.990046 0.992944 0.987003 0.993329 0.984768 0.989483 0.990411 0.990832 0.986718 0.987857 0.995704 0.993505 0.993527 0.99401 0.990832 0.99362 0.987857 0.993051 0.993505 0.994494 0.99401 0.987003 0.986718 0.987857 0.978724 0.984926 0.993527 0.99401 0.987689 0.988743 0.987857 0.993051 0.984926 0.978563 0.99401 0.987003 0.988743 0.984768 0.995704 0.993505 0.993527 0.99401 0.998441 0.997368 0.99641 0.99553 0.993505 0.994494 0.99401 0.987003 0.997368 0.99552 0.99553 0.993329 0.993527 0.99401 0.987689 0.988743 0.99641 0.99553 0.994776 0.992189 0.99401 0.987003 0.988743 0.984768 0.99553 0.993329 0.992189 0.989483 0.993626 0.993193 0.99419 0.991653 0.997246 0.996448 0.996515 0.994668 0.993193 0.992876 0.991653 0.991039 0.996448 0.996034 0.994668 0.996708 0.99419 0.991653 0.990411 0.990832 0.996515 0.994668 0.995704 0.993505 0.991653 0.991039 0.990832 0.99362 0.994668 0.996708 0.993505 0.994494 0.997246 0.996448 0.996515 0.994668 0.999406 0.997881 0.998465 0.998149 0.996448 0.996034 0.994668 0.996708 0.997881 0.998817 0.998149 0.995596 0.996515 0.994668 0.995704 0.993505 0.998465 0.998149 0.998441 0.997368 0.994668 0.996708 0.993505 0.994494 0.998149 0.995596 0.997368 0.99552 0.993159 0.993688 0.988013 0.985484 0.990157 0.991679 0.990398 0.988808 0.993688 0.995914 0.985484 0.990523 0.991679 0.990267 0.988808 0.993425 0.988013 0.985484 0.973404 0.985353 0.990398 0.988808 0.980833 0.977786 0.985484 0.990523 0.985353 0.984846 0.988808 0.993425 0.977786 0.98619 0.990157 0.991679 0.990398 0.988808 0.993943 0.990912 0.989199 0.987654 0.991679 0.990267 0.988808 0.993425 0.990912 0.988556 0.987654 0.984616 0.990398 0.988808 0.980833 0.977786 0.989199 0.987654 0.977938 0.98303 0.988808 0.993425 0.977786 0.98619 0.987654 0.984616 0.98303 0.984428 0.995914 0.995868 0.990523 0.99082 0.990267 0.99503 0.993425 0.990425 0.995868 0.998158 0.99082 0.996363 0.99503 0.996063 0.990425 0.993366 0.990523 0.99082 0.984846 0.988285 0.993425 0.990425 0.98619 0.985989 0.99082 0.996363 0.988285 0.99605 0.990425 0.993366 0.985989 0.990284 0.990267 0.99503 0.993425 0.990425 0.988556 0.995917 0.984616 0.988221 0.99503 0.996063 0.990425 0.993366 0.995917 0.995743 0.988221 0.992169 0.993425 0.990425 0.98619 0.985989 0.984616 0.988221 0.984428 0.991041 0.990425 0.993366 0.985989 0.990284 0.988221 0.992169 0.991041 0.9931 0.993943 0.990912 0.989199 0.987654 0.996718 0.993327 0.990191 0.991519 0.990912 0.988556 0.987654 0.984616 0.993327 0.995917 0.991519 0.988221 0.989199 0.987654 0.977938 0.98303 0.990191 0.991519 0.986615 0.982582 0.987654 0.984616 0.98303 0.984428 0.991519 0.988221 0.982582 0.991041 0.996718 0.993327 0.990191 0.991519 0.997486 0.99692 0.9956 0.992884 0.993327 0.995917 0.991519 0.988221 0.99692 0.995743 0.992884 0.992169 0.990191 0.991519 0.986615 0.982582 0.9956 0.992884 0.994575 0.992454 0.991519 0.988221 0.982582 0.991041 0.992884 0.992169 0.992454 0.9931 0.993159 0.993688 0.990157 0.991679 0.997657 0.997889 0.995799 0.994136 0.993688 0.995914 0.991679 0.990267 0.997889 0.995868 0.994136 0.99503 0.990157 0.991679 0.993943 0.990912 0.995799 0.994136 0.996718 0.993327 0.991679 0.990267 0.990912 0.988556 0.994136 0.99503 0.993327 0.995917 0.997657 0.997889 0.995799 0.994136 0.999406 0.998424 0.998663 0.997147 0.997889 0.995868 0.994136 0.99503 0.998424 0.998158 0.997147 0.996063 0.995799 0.994136 0.996718 0.993327 0.998663 0.997147 0.997486 0.99692 0.994136 0.99503 0.993327 0.995917 0.997147 0.996063 0.99692 0.995743 0.998002 1.00023 0.996287 1.00076 1.00062 1.00103 1.00116 1.00276 1.00023 1.00276 1.00076 1.00474 1.00103 1.00352 1.00276 1.0043 0.996287 1.00076 0.997126 1.00049 1.00116 1.00276 1.0008 1.00286 1.00076 1.00474 1.00049 1.00651 1.00276 1.0043 1.00286 1.00902 1.00062 1.00103 1.00116 1.00276 1.00231 1.00317 1.0045 1.00415 1.00103 1.00352 1.00276 1.0043 1.00317 1.00588 1.00415 1.0077 1.00116 1.00276 1.0008 1.00286 1.0045 1.00415 1.00488 1.00685 1.00276 1.0043 1.00286 1.00902 1.00415 1.0077 1.00685 1.00741 1.00276 1.00306 1.00474 1.00534 1.00352 1.0044 1.0043 1.00517 1.00306 1.00344 1.00534 1.00808 1.0044 1.00449 1.00517 1.0055 1.00474 1.00534 1.00651 1.00903 1.0043 1.00517 1.00902 1.01433 1.00534 1.00808 1.00903 1.0124 1.00517 1.0055 1.01433 1.01541 1.00352 1.0044 1.0043 1.00517 1.00588 1.00648 1.0077 1.00713 1.0044 1.00449 1.00517 1.0055 1.00648 1.00781 1.00713 1.00784 1.0043 1.00517 1.00902 1.01433 1.0077 1.00713 1.00741 1.01232 1.00517 1.0055 1.01433 1.01541 1.00713 1.00784 1.01232 1.00614 1.00231 1.00317 1.0045 1.00415 1.00175 1.00491 1.00672 1.00389 1.00317 1.00588 1.00415 1.0077 1.00491 1.00648 1.00389 1.00713 1.0045 1.00415 1.00488 1.00685 1.00672 1.00389 1.00801 1.0091 1.00415 1.0077 1.00685 1.00741 1.00389 1.00713 1.0091 1.01232 1.00175 1.00491 1.00672 1.00389 1.0037 1.00242 1.00814 1.0074 1.00491 1.00648 1.00389 1.00713 1.00242 1.00781 1.0074 1.00784 1.00672 1.00389 1.00801 1.0091 1.00814 1.0074 1.0116 1.01033 1.00389 1.00713 1.0091 1.01232 1.0074 1.00784 1.01033 1.00614 0.998002 1.00023 1.00062 1.00103 0.998859 1.00078 1.00041 1.00157 1.00023 1.00276 1.00103 1.00352 1.00078 1.00306 1.00157 1.0044 1.00062 1.00103 1.00231 1.00317 1.00041 1.00157 1.00175 1.00491 1.00103 1.00352 1.00317 1.00588 1.00157 1.0044 1.00491 1.00648 0.998859 1.00078 1.00041 1.00157 0.999406 1.0013 1.00052 1.00103 1.00078 1.00306 1.00157 1.0044 1.0013 1.00344 1.00103 1.00449 1.00041 1.00157 1.00175 1.00491 1.00052 1.00103 1.0037 1.00242 1.00157 1.0044 1.00491 1.00648 1.00103 1.00449 1.00242 1.00781 1.00256 1.00258 1.00678 1.00712 1.00313 1.0046 1.00641 1.00538 1.00258 1.00204 1.00712 1.00359 1.0046 1.00438 1.00538 1.00524 1.00678 1.00712 1.00785 1.01076 1.00641 1.00538 1.01115 1.00919 1.00712 1.00359 1.01076 1.00458 1.00538 1.00524 1.00919 1.0058 1.00313 1.0046 1.00641 1.00538 1.00612 1.00659 1.00821 1.00822 1.0046 1.00438 1.00538 1.00524 1.00659 1.00546 1.00822 1.0064 1.00641 1.00538 1.01115 1.00919 1.00821 1.00822 1.01161 1.01053 1.00538 1.00524 1.00919 1.0058 1.00822 1.0064 1.01053 1.0068 1.00204 0.999729 1.00359 0.999823 1.00438 1.00203 1.00524 1.00342 0.999729 0.997942 0.999823 0.99815 1.00203 1.00045 1.00342 1.00114 1.00359 0.999823 1.00458 0.999752 1.00524 1.00342 1.0058 1.0044 0.999823 0.99815 0.999752 0.993561 1.00342 1.00114 1.0044 1.00121 1.00438 1.00203 1.00524 1.00342 1.00546 1.00231 1.0064 1.00595 1.00203 1.00045 1.00342 1.00114 1.00231 1.00254 1.00595 1.00432 1.00524 1.00342 1.0058 1.0044 1.0064 1.00595 1.0068 1.00504 1.00342 1.00114 1.0044 1.00121 1.00595 1.00432 1.00504 1.00624 1.00612 1.00659 1.00821 1.00822 1.00518 1.00478 1.00837 1.0056 1.00659 1.00546 1.00822 1.0064 1.00478 1.00231 1.0056 1.00595 1.00821 1.00822 1.01161 1.01053 1.00837 1.0056 1.01285 1.00635 1.00822 1.0064 1.01053 1.0068 1.0056 1.00595 1.00635 1.00504 1.00518 1.00478 1.00837 1.0056 1.00234 1.00308 1.00528 1.00576 1.00478 1.00231 1.0056 1.00595 1.00308 1.00254 1.00576 1.00432 1.00837 1.0056 1.01285 1.00635 1.00528 1.00576 1.01371 1.00792 1.0056 1.00595 1.00635 1.00504 1.00576 1.00432 1.00792 1.00624 1.00256 1.00258 1.00313 1.0046 1.00117 1.00073 1.00295 1.00288 1.00258 1.00204 1.0046 1.00438 1.00073 0.999729 1.00288 1.00203 1.00313 1.0046 1.00612 1.00659 1.00295 1.00288 1.00518 1.00478 1.0046 1.00438 1.00659 1.00546 1.00288 1.00203 1.00478 1.00231 1.00117 1.00073 1.00295 1.00288 0.999406 0.999617 1.00215 1.00109 1.00073 0.999729 1.00288 1.00203 0.999617 0.997942 1.00109 1.00045 1.00295 1.00288 1.00518 1.00478 1.00215 1.00109 1.00234 1.00308 1.00288 1.00203 1.00478 1.00231 1.00109 1.00045 1.00308 1.00254 1.00256 1.00313 1.00678 1.00641 1.00213 1.00112 1.00714 1.00496 1.00313 1.00612 1.00641 1.00821 1.00112 1.00601 1.00496 1.00808 1.00678 1.00641 1.00785 1.01115 1.00714 1.00496 1.00631 1.00504 1.00641 1.00821 1.01115 1.01161 1.00496 1.00808 1.00504 1.00312 1.00213 1.00112 1.00714 1.00496 1.00161 1.00243 1.00388 1.00616 1.00112 1.00601 1.00496 1.00808 1.00243 1.00474 1.00616 1.00808 1.00714 1.00496 1.00631 1.00504 1.00388 1.00616 1.0049 1.00735 1.00496 1.00808 1.00504 1.00312 1.00616 1.00808 1.00735 1.00794 1.00612 1.00518 1.00821 1.00837 1.00601 1.00298 1.00808 1.00517 1.00518 1.00234 1.00837 1.00528 1.00298 1.00353 1.00517 1.00752 1.00821 1.00837 1.01161 1.01285 1.00808 1.00517 1.00312 1.01047 1.00837 1.00528 1.01285 1.01371 1.00517 1.00752 1.01047 1.0115 1.00601 1.00298 1.00808 1.00517 1.00474 1.00306 1.00808 1.00614 1.00298 1.00353 1.00517 1.00752 1.00306 1.00138 1.00614 1.00357 1.00808 1.00517 1.00312 1.01047 1.00808 1.00614 1.00794 1.01177 1.00517 1.00752 1.01047 1.0115 1.00614 1.00357 1.01177 1.00417 1.00161 1.00243 1.00388 1.00616 0.999581 1.00178 0.999592 1.00281 1.00243 1.00474 1.00616 1.00808 1.00178 1.00306 1.00281 1.00614 1.00388 1.00616 1.0049 1.00735 0.999592 1.00281 0.999736 1.00412 1.00616 1.00808 1.00735 1.00794 1.00281 1.00614 1.00412 1.01177 0.999581 1.00178 0.999592 1.00281 0.998441 0.999866 0.99641 1.00023 1.00178 1.00306 1.00281 1.00614 0.999866 1.00138 1.00023 1.00357 0.999592 1.00281 0.999736 1.00412 0.99641 1.00023 0.994776 1.00023 1.00281 1.00614 1.00412 1.01177 1.00023 1.00357 1.00023 1.00417 1.00256 1.00313 1.00213 1.00112 1.00117 1.00295 1.00043 1.00276 1.00313 1.00612 1.00112 1.00601 1.00295 1.00518 1.00276 1.00298 1.00213 1.00112 1.00161 1.00243 1.00043 1.00276 0.999581 1.00178 1.00112 1.00601 1.00243 1.00474 1.00276 1.00298 1.00178 1.00306 1.00117 1.00295 1.00043 1.00276 0.999406 1.00215 0.998465 1.00023 1.00295 1.00518 1.00276 1.00298 1.00215 1.00234 1.00023 1.00353 1.00043 1.00276 0.999581 1.00178 0.998465 1.00023 0.998441 0.999866 1.00276 1.00298 1.00178 1.00306 1.00023 1.00353 0.999866 1.00138 0.997739 1.00049 0.997287 1.00103 1.00042 1.00172 1.00043 1.00301 1.00049 1.00119 1.00103 1.00368 1.00172 1.00453 1.00301 1.00568 0.997287 1.00103 0.994079 1.00088 1.00043 1.00301 0.999663 1.00299 1.00103 1.00368 1.00088 1.00928 1.00301 1.00568 1.00299 1.00453 1.00042 1.00172 1.00043 1.00301 1.00247 1.00216 1.00403 1.00528 1.00172 1.00453 1.00301 1.00568 1.00216 1.00487 1.00528 1.00691 1.00043 1.00301 0.999663 1.00299 1.00403 1.00528 1.00278 1.00729 1.00301 1.00568 1.00299 1.00453 1.00528 1.00691 1.00729 1.01324 1.00119 1.00231 1.00368 1.00515 1.00453 1.0024 1.00568 1.00825 1.00231 1.00378 1.00515 1.00513 1.0024 1.00412 1.00825 1.00537 1.00368 1.00515 1.00928 1.01005 1.00568 1.00825 1.00453 1.01399 1.00515 1.00513 1.01005 1.01521 1.00825 1.00537 1.01399 1.0082 1.00453 1.0024 1.00568 1.00825 1.00487 1.00364 1.00691 1.00443 1.0024 1.00412 1.00825 1.00537 1.00364 1.00426 1.00443 1.00704 1.00568 1.00825 1.00453 1.01399 1.00691 1.00443 1.01324 1.011 1.00825 1.00537 1.01399 1.0082 1.00443 1.00704 1.011 1.00733 1.00247 1.00216 1.00403 1.00528 1.0032 1.00469 1.0044 1.00543 1.00216 1.00487 1.00528 1.00691 1.00469 1.00364 1.00543 1.00443 1.00403 1.00528 1.00278 1.00729 1.0044 1.00543 1.0114 1.00769 1.00528 1.00691 1.00729 1.01324 1.00543 1.00443 1.00769 1.011 1.0032 1.00469 1.0044 1.00543 1.00344 1.00475 1.00808 1.0078 1.00469 1.00364 1.00543 1.00443 1.00475 1.00426 1.0078 1.00704 1.0044 1.00543 1.0114 1.00769 1.00808 1.0078 1.0124 1.01241 1.00543 1.00443 1.00769 1.011 1.0078 1.00704 1.01241 1.00733 0.997739 1.00049 1.00042 1.00172 0.999319 1.00067 1.00134 1.0025 1.00049 1.00119 1.00172 1.00453 1.00067 1.00231 1.0025 1.0024 1.00042 1.00172 1.00247 1.00216 1.00134 1.0025 1.0032 1.00469 1.00172 1.00453 1.00216 1.00487 1.0025 1.0024 1.00469 1.00364 0.999319 1.00067 1.00134 1.0025 0.999406 1.00105 1.0013 1.00238 1.00067 1.00231 1.0025 1.0024 1.00105 1.00378 1.00238 1.00412 1.00134 1.0025 1.0032 1.00469 1.0013 1.00238 1.00344 1.00475 1.0025 1.0024 1.00469 1.00364 1.00238 1.00412 1.00475 1.00426 0.997942 0.999961 0.99815 0.99983 1.00045 1.0015 1.00114 1.00289 0.999961 1.00242 0.99983 1.00325 1.0015 1.00165 1.00289 1.00435 0.99815 0.99983 0.993561 0.999735 1.00114 1.00289 1.00121 1.00179 0.99983 1.00325 0.999735 1.00125 1.00289 1.00435 1.00179 1.00129 1.00045 1.0015 1.00114 1.00289 1.00254 1.0018 1.00432 1.00295 1.0015 1.00165 1.00289 1.00435 1.0018 1.0013 1.00295 1.00532 1.00114 1.00289 1.00121 1.00179 1.00432 1.00295 1.00624 1.0062 1.00289 1.00435 1.00179 1.00129 1.00295 1.00532 1.0062 1.00924 1.00308 1.00577 1.00874 1.00734 1.00257 1.00348 1.00551 1.00824 1.00577 1.0068 1.00734 1.01032 1.00348 1.00573 1.00824 1.00744 1.00874 1.00734 1.01025 1.01057 1.00551 1.00824 1.00795 1.01237 1.00734 1.01032 1.01057 1.01171 1.00824 1.00744 1.01237 1.01026 1.00257 1.00348 1.00551 1.00824 1.00242 1.00165 1.00325 1.00435 1.00348 1.00573 1.00824 1.00744 1.00165 1.0013 1.00435 1.00532 1.00551 1.00824 1.00795 1.01237 1.00325 1.00435 1.00125 1.00129 1.00824 1.00744 1.01237 1.01026 1.00435 1.00532 1.00129 1.00924 1.00234 1.00308 1.00528 1.00576 1.00431 1.00342 1.00671 1.00581 1.00308 1.00254 1.00576 1.00432 1.00342 1.0018 1.00581 1.00295 1.00528 1.00576 1.01371 1.00792 1.00671 1.00581 1.00738 1.01047 1.00576 1.00432 1.00792 1.00624 1.00581 1.00295 1.01047 1.0062 1.00431 1.00342 1.00671 1.00581 1.0068 1.00573 1.01032 1.00744 1.00342 1.0018 1.00581 1.00295 1.00573 1.0013 1.00744 1.00532 1.00671 1.00581 1.00738 1.01047 1.01032 1.00744 1.01171 1.01026 1.00581 1.00295 1.01047 1.0062 1.00744 1.00532 1.01026 1.00924 0.999406 0.999617 1.00215 1.00109 1.00194 1.00055 1.00371 1.00188 0.999617 0.997942 1.00109 1.00045 1.00055 0.999961 1.00188 1.0015 1.00215 1.00109 1.00234 1.00308 1.00371 1.00188 1.00431 1.00342 1.00109 1.00045 1.00308 1.00254 1.00188 1.0015 1.00342 1.0018 1.00194 1.00055 1.00371 1.00188 1.00308 1.00257 1.00577 1.00348 1.00055 0.999961 1.00188 1.0015 1.00257 1.00242 1.00348 1.00165 1.00371 1.00188 1.00431 1.00342 1.00577 1.00348 1.0068 1.00573 1.00188 1.0015 1.00342 1.0018 1.00348 1.00165 1.00573 1.0013 1.00263 1.00229 1.00381 1.0057 1.00039 1.00249 1.00049 1.00407 1.00229 1.00459 1.0057 1.00706 1.00249 1.00413 1.00407 1.0051 1.00381 1.0057 1.00624 1.00808 1.00049 1.00407 1.00043 1.00443 1.0057 1.00706 1.00808 1.00461 1.00407 1.0051 1.00443 1.00803 1.00039 1.00249 1.00049 1.00407 0.998035 1.00101 0.996207 1.00106 1.00249 1.00413 1.00407 1.0051 1.00101 1.00199 1.00106 1.00538 1.00049 1.00407 1.00043 1.00443 0.996207 1.00106 0.995462 1.00084 1.00407 1.0051 1.00443 1.00803 1.00106 1.00538 1.00084 1.00662 1.00263 1.00362 1.00381 1.00457 1.00229 1.00397 1.0057 1.00679 1.00362 1.00256 1.00457 1.00678 1.00397 1.00209 1.00679 1.00684 1.00381 1.00457 1.00624 1.0152 1.0057 1.00679 1.00808 1.00496 1.00457 1.00678 1.0152 1.00785 1.00679 1.00684 1.00496 1.00671 1.00229 1.00397 1.0057 1.00679 1.00459 1.00446 1.00706 1.00661 1.00397 1.00209 1.00679 1.00684 1.00446 1.00566 1.00661 1.00619 1.0057 1.00679 1.00808 1.00496 1.00706 1.00661 1.00461 1.00982 1.00679 1.00684 1.00496 1.00671 1.00661 1.00619 1.00982 1.01192 1.00459 1.00446 1.00706 1.00661 1.00413 1.00405 1.0051 1.00768 1.00446 1.00566 1.00661 1.00619 1.00405 1.0036 1.00768 1.00606 1.00706 1.00661 1.00461 1.00982 1.0051 1.00768 1.00803 1.00766 1.0066