# vtk DataFile Version 3.0
#This file was generated by the deal.II library on 2025/4/16 at 17:55:23
ASCII
DATASET UNSTRUCTURED_GRID

POINTS 8192 double
-0.353146 6.20341e-05 -0.354197
-0.461568 -0.00164601 -0.298476
-0.528417 -0.0100399 -0.529469
-0.63895 -0.00987211 -0.42407
-0.41396 -0.117279 -0.300183
-0.507477 -0.105743 -0.258511
-0.590913 -0.165794 -0.432208
-0.676754 -0.14448 -0.356356
-0.461568 -0.00164601 -0.298476
-0.568547 5.25152e-05 -0.236181
-0.63895 -0.00987211 -0.42407
-0.743374 -0.00564889 -0.311937
-0.507477 -0.105743 -0.258511
-0.600004 -0.0913437 -0.212532
-0.676754 -0.14448 -0.356356
-0.758888 -0.120632 -0.276958
-0.528417 -0.0100399 -0.529469
-0.63895 -0.00987211 -0.42407
-0.706717 5.08996e-05 -0.707727
-0.821196 -0.00282507 -0.548656
-0.590913 -0.165794 -0.432208
-0.676754 -0.14448 -0.356356
-0.773471 -0.202627 -0.563888
-0.851335 -0.174015 -0.451874
-0.63895 -0.00987211 -0.42407
-0.743374 -0.00564889 -0.311937
-0.821196 -0.00282507 -0.548656
-0.923385 4.63477e-05 -0.383119
-0.676754 -0.14448 -0.356356
-0.758888 -0.120632 -0.276958
-0.851335 -0.174015 -0.451874
-0.922347 -0.142806 -0.337497
-0.41396 -0.117279 -0.300183
-0.507477 -0.105743 -0.258511
-0.590913 -0.165794 -0.432208
-0.676754 -0.14448 -0.356356
-0.470952 -0.235545 -0.236192
-0.550261 -0.211065 -0.211712
-0.644743 -0.319958 -0.320605
-0.708357 -0.278981 -0.279628
-0.507477 -0.105743 -0.258511
-0.600004 -0.0913437 -0.212532
-0.676754 -0.14448 -0.356356
-0.758888 -0.120632 -0.276958
-0.550261 -0.211065 -0.211712
-0.628899 -0.184156 -0.184678
-0.708357 -0.278981 -0.279628
-0.769874 -0.236492 -0.237015
-0.590913 -0.165794 -0.432208
-0.676754 -0.14448 -0.356356
-0.773471 -0.202627 -0.563888
-0.851335 -0.174015 -0.451874
-0.644743 -0.319958 -0.320605
-0.708357 -0.278981 -0.279628
-0.824585 -0.399413 -0.400015
-0.871165 -0.342664 -0.343267
-0.676754 -0.14448 -0.356356
-0.758888 -0.120632 -0.276958
-0.851335 -0.174015 -0.451874
-0.922347 -0.142806 -0.337497
-0.708357 -0.278981 -0.279628
-0.769874 -0.236492 -0.237015
-0.871165 -0.342664 -0.343267
-0.914377 -0.285304 -0.285786
-0.568547 5.25152e-05 -0.236181
-0.536335 -0.00238908 -0.116164
-0.743374 -0.00564889 -0.311937
-0.748817 -0.0104015 -0.159277
-0.600004 -0.0913437 -0.212532
-0.569856 -0.105842 -0.10621
-0.758888 -0.120632 -0.276958
-0.757049 -0.14233 -0.142698
-0.536335 -0.00238908 -0.116164
-0.499434 6.27081e-05 -0.000131533
-0.748817 -0.0104015 -0.159277
-0.745118 -0.00987858 -0.0100728
-0.569856 -0.105842 -0.10621
-0.536315 -0.115788 -0.00257471
-0.757049 -0.14233 -0.142698
-0.748797 -0.158901 -0.0105871
-0.743374 -0.00564889 -0.311937
-0.748817 -0.0104015 -0.159277
-0.923385 4.63477e-05 -0.383119
-0.968818 -0.00327664 -0.190911
-0.758888 -0.120632 -0.276958
-0.757049 -0.14233 -0.142698
-0.922347 -0.142806 -0.337497
-0.950657 -0.169858 -0.170183
-0.748817 -0.0104015 -0.159277
-0.745118 -0.00987858 -0.0100728
-0.968818 -0.00327664 -0.190911
-0.999364 6.5581e-05 -0.000113443
-0.757049 -0.14233 -0.142698
-0.748797 -0.158901 -0.0105871
-0.950657 -0.169858 -0.170183
-0.968766 -0.190574 -0.00344323
-0.600004 -0.0913437 -0.212532
-0.569856 -0.105842 -0.10621
-0.758888 -0.120632 -0.276958
-0.757049 -0.14233 -0.142698
-0.628899 -0.184156 -0.184678
-0.599939 -0.211915 -0.091659
-0.769874 -0.236492 -0.237015
-0.758824 -0.276341 -0.120948
-0.569856 -0.105842 -0.10621
-0.536315 -0.115788 -0.00257471
-0.757049 -0.14233 -0.142698
-0.748797 -0.158901 -0.0105871
-0.599939 -0.211915 -0.091659
-0.568471 -0.23554 -0.000109853
-0.758824 -0.276341 -0.120948
-0.743298 -0.311296 -0.00581126
-0.758888 -0.120632 -0.276958
-0.757049 -0.14233 -0.142698
-0.922347 -0.142806 -0.337497
-0.950657 -0.169858 -0.170183
-0.769874 -0.236492 -0.237015
-0.758824 -0.276341 -0.120948
-0.914377 -0.285304 -0.285786
-0.922256 -0.336915 -0.143081
-0.757049 -0.14233 -0.142698
-0.748797 -0.158901 -0.0105871
-0.950657 -0.169858 -0.170183
-0.968766 -0.190574 -0.00344323
-0.758824 -0.276341 -0.120948
-0.743298 -0.311296 -0.00581126
-0.922256 -0.336915 -0.143081
-0.92326 -0.382507 -9.47318e-05
-0.470952 -0.235545 -0.236192
-0.550261 -0.211065 -0.211712
-0.644743 -0.319958 -0.320605
-0.708357 -0.278981 -0.279628
-0.413894 -0.299291 -0.117657
-0.50741 -0.257619 -0.106122
-0.590847 -0.431316 -0.166173
-0.676687 -0.355465 -0.144859
-0.550261 -0.211065 -0.211712
-0.628899 -0.184156 -0.184678
-0.708357 -0.278981 -0.279628
-0.769874 -0.236492 -0.237015
-0.50741 -0.257619 -0.106122
-0.599939 -0.211915 -0.091659
-0.676687 -0.355465 -0.144859
-0.758824 -0.276341 -0.120948
-0.644743 -0.319958 -0.320605
-0.708357 -0.278981 -0.279628
-0.824585 -0.399413 -0.400015
-0.871165 -0.342664 -0.343267
-0.590847 -0.431316 -0.166173
-0.676687 -0.355465 -0.144859
-0.773355 -0.563004 -0.202954
-0.851218 -0.45099 -0.174341
-0.708357 -0.278981 -0.279628
-0.769874 -0.236492 -0.237015
-0.871165 -0.342664 -0.343267
-0.914377 -0.285304 -0.285786
-0.676687 -0.355465 -0.144859
-0.758824 -0.276341 -0.120948
-0.851218 -0.45099 -0.174341
-0.922256 -0.336915 -0.143081
-0.413894 -0.299291 -0.117657
-0.50741 -0.257619 -0.106122
-0.590847 -0.431316 -0.166173
-0.676687 -0.355465 -0.144859
-0.353092 -0.353234 -0.000125414
-0.461514 -0.297513 -0.00183346
-0.528363 -0.528506 -0.0102274
-0.638895 -0.423107 -0.0100596
-0.50741 -0.257619 -0.106122
-0.599939 -0.211915 -0.091659
-0.676687 -0.355465 -0.144859
-0.758824 -0.276341 -0.120948
-0.461514 -0.297513 -0.00183346
-0.568471 -0.23554 -0.000109853
-0.638895 -0.423107 -0.0100596
-0.743298 -0.311296 -0.00581126
-0.590847 -0.431316 -0.166173
-0.676687 -0.355465 -0.144859
-0.773355 -0.563004 -0.202954
-0.851218 -0.45099 -0.174341
-0.528363 -0.528506 -0.0102274
-0.638895 -0.423107 -0.0100596
-0.706592 -0.706746 -0.000109779
-0.82107 -0.547675 -0.00298575
-0.676687 -0.355465 -0.144859
-0.758824 -0.276341 -0.120948
-0.851218 -0.45099 -0.174341
-0.922256 -0.336915 -0.143081
-0.638895 -0.423107 -0.0100596
-0.743298 -0.311296 -0.00581126
-0.82107 -0.547675 -0.00298575
-0.92326 -0.382507 -9.47318e-05
-0.353146 6.20341e-05 -0.354197
-0.461568 -0.00164601 -0.298476
-0.41396 -0.117279 -0.300183
-0.507477 -0.105743 -0.258511
-0.173775 -0.0144237 -0.174615
-0.353336 -0.0140959 -0.15287
-0.294051 -0.154798 -0.155356
-0.431646 -0.134065 -0.134623
-0.461568 -0.00164601 -0.298476
-0.568547 5.25152e-05 -0.236181
-0.507477 -0.105743 -0.258511
-0.600004 -0.0913437 -0.212532
-0.353336 -0.0140959 -0.15287
-0.536335 -0.00238908 -0.116164
-0.431646 -0.134065 -0.134623
-0.569856 -0.105842 -0.10621
-0.41396 -0.117279 -0.300183
-0.507477 -0.105743 -0.258511
-0.470952 -0.235545 -0.236192
-0.550261 -0.211065 -0.211712
-0.294051 -0.154798 -0.155356
-0.431646 -0.134065 -0.134623
-0.413894 -0.299291 -0.117657
-0.50741 -0.257619 -0.106122
-0.507477 -0.105743 -0.258511
-0.600004 -0.0913437 -0.212532
-0.550261 -0.211065 -0.211712
-0.628899 -0.184156 -0.184678
-0.431646 -0.134065 -0.134623
-0.569856 -0.105842 -0.10621
-0.50741 -0.257619 -0.106122
-0.599939 -0.211915 -0.091659
-0.173775 -0.0144237 -0.174615
-0.353336 -0.0140959 -0.15287
-0.294051 -0.154798 -0.155356
-0.431646 -0.134065 -0.134623
0.000277372 9.34662e-05 -0.000199065
-0.243518 -0.012534 -0.0128266
-0.173856 -0.17404 -0.014699
-0.353417 -0.152295 -0.0143712
-0.353336 -0.0140959 -0.15287
-0.536335 -0.00238908 -0.116164
-0.431646 -0.134065 -0.134623
-0.569856 -0.105842 -0.10621
-0.243518 -0.012534 -0.0128266
-0.499434 6.27081e-05 -0.000131533
-0.353417 -0.152295 -0.0143712
-0.536315 -0.115788 -0.00257471
-0.294051 -0.154798 -0.155356
-0.431646 -0.134065 -0.134623
-0.413894 -0.299291 -0.117657
-0.50741 -0.257619 -0.106122
-0.173856 -0.17404 -0.014699
-0.353417 -0.152295 -0.0143712
-0.353092 -0.353234 -0.000125414
-0.461514 -0.297513 -0.00183346
-0.431646 -0.134065 -0.134623
-0.569856 -0.105842 -0.10621
-0.50741 -0.257619 -0.106122
-0.599939 -0.211915 -0.091659
-0.353417 -0.152295 -0.0143712
-0.536315 -0.115788 -0.00257471
-0.461514 -0.297513 -0.00183346
-0.568471 -0.23554 -0.000109853
0.353241 -2.46571e-05 0.354154
0.410871 0.117636 0.285919
0.537107 -0.0282025 0.538019
0.596451 0.137234 0.402957
0.459681 -0.00427579 0.291689
0.503269 0.102374 0.243621
0.641342 -0.0301406 0.418392
0.677947 0.118454 0.329773
0.410871 0.117636 0.285919
0.471036 0.23558 0.236143
0.596451 0.137234 0.402957
0.660678 0.312144 0.312678
0.503269 0.102374 0.243621
0.54821 0.208357 0.208917
0.677947 0.118454 0.329773
0.717245 0.26959 0.270134
0.537107 -0.0282025 0.538019
0.596451 0.137234 0.402957
0.706825 -1.60694e-05 0.707685
0.757523 0.193301 0.520269
0.641342 -0.0301406 0.418392
0.677947 0.118454 0.329773
0.807589 -0.0161635 0.545072
0.8313 0.161685 0.422317
0.596451 0.137234 0.402957
0.660678 0.312144 0.312678
0.757523 0.193301 0.520269
0.816154 0.408131 0.408591
0.677947 0.118454 0.329773
0.717245 0.26959 0.270134
0.8313 0.161685 0.422317
0.859564 0.346621 0.347098
0.459681 -0.00427579 0.291689
0.503269 0.102374 0.243621
0.641342 -0.0301406 0.418392
0.677947 0.118454 0.329773
0.56863 -2.42969e-05 0.236139
0.598092 0.0930709 0.20631
0.753501 -0.0138418 0.304621
0.766221 0.108315 0.259293
0.503269 0.102374 0.243621
0.54821 0.208357 0.208917
0.677947 0.118454 0.329773
0.717245 0.26959 0.270134
0.598092 0.0930709 0.20631
0.628123 0.185052 0.185494
0.766221 0.108315 0.259293
0.780435 0.22943 0.229871
0.641342 -0.0301406 0.418392
0.677947 0.118454 0.329773
0.807589 -0.0161635 0.545072
0.8313 0.161685 0.422317
0.753501 -0.0138418 0.304621
0.766221 0.108315 0.259293
0.923475 -2.07992e-05 0.38307
0.917119 0.143649 0.323154
0.677947 0.118454 0.329773
0.717245 0.26959 0.270134
0.8313 0.161685 0.422317
0.859564 0.346621 0.347098
0.766221 0.108315 0.259293
0.780435 0.22943 0.229871
0.917119 0.143649 0.323154
0.91352 0.28683 0.287214
0.471036 0.23558 0.236143
0.410781 0.28511 0.117929
0.660678 0.312144 0.312678
0.596362 0.402166 0.137513
0.54821 0.208357 0.208917
0.503179 0.242813 0.102665
0.717245 0.26959 0.270134
0.677857 0.328975 0.118738
0.410781 0.28511 0.117929
0.353151 0.353272 6.39967e-05
0.596362 0.402166 0.137513
[...]
POINT_DATA 8192
SCALARS D_0 double 1
LOOKUP_TABLE default
0.0001024 8.98717e-05 0.000118699 9.76462e-05 9.01991e-05 8.37478e-05 0.000100139 9.01196e-05 8.98717e-05 8.14943e-05 9.76462e-05 8.68014e-05 8.37478e-05 7.97362e-05 9.01196e-05 8.48701e-05 0.000118699 9.76462e-05 9.90905e-05 8.10052e-05 0.000100139 9.01196e-05 8.24619e-05 7.65523e-05 9.76462e-05 8.68014e-05 8.10052e-05 7.63887e-05 9.01196e-05 8.48701e-05 7.65523e-05 7.7588e-05 9.01991e-05 8.37478e-05 0.000100139 9.01196e-05 8.02648e-05 7.87663e-05 8.60123e-05 8.44654e-05 8.37478e-05 7.97362e-05 9.01196e-05 8.48701e-05 7.87663e-05 7.82961e-05 8.44654e-05 8.31779e-05 0.000100139 9.01196e-05 8.24619e-05 7.65523e-05 8.60123e-05 8.44654e-05 7.58304e-05 7.63276e-05 9.01196e-05 8.48701e-05 7.65523e-05 7.7588e-05 8.44654e-05 8.31779e-05 7.63276e-05 7.83572e-05 8.14943e-05 7.10349e-05 8.68014e-05 8.18778e-05 7.97362e-05 7.18824e-05 8.48701e-05 8.17466e-05 7.10349e-05 6.3456e-05 8.18778e-05 7.84288e-05 7.18824e-05 6.61758e-05 8.17466e-05 7.9682e-05 8.68014e-05 8.18778e-05 7.63887e-05 8.23191e-05 8.48701e-05 8.17466e-05 7.7588e-05 8.22711e-05 8.18778e-05 7.84288e-05 8.23191e-05 8.60427e-05 8.17466e-05 7.9682e-05 8.22711e-05 8.47686e-05 7.97362e-05 7.18824e-05 8.48701e-05 8.17466e-05 7.82961e-05 7.30351e-05 8.31779e-05 8.20194e-05 7.18824e-05 6.61758e-05 8.17466e-05 7.9682e-05 7.30351e-05 6.93269e-05 8.20194e-05 8.13104e-05 8.48701e-05 8.17466e-05 7.7588e-05 8.22711e-05 8.31779e-05 8.20194e-05 7.83572e-05 8.24328e-05 8.17466e-05 7.9682e-05 8.22711e-05 8.47686e-05 8.20194e-05 8.13104e-05 8.24328e-05 8.3592e-05 8.02648e-05 7.87663e-05 8.60123e-05 8.44654e-05 6.9093e-05 7.05318e-05 8.04637e-05 8.10341e-05 7.87663e-05 7.82961e-05 8.44654e-05 8.31779e-05 7.05318e-05 7.30351e-05 8.10341e-05 8.20194e-05 8.60123e-05 8.44654e-05 7.58304e-05 7.63276e-05 8.04637e-05 8.10341e-05 7.94871e-05 8.05194e-05 8.44654e-05 8.31779e-05 7.63276e-05 7.83572e-05 8.10341e-05 8.20194e-05 8.05194e-05 8.24328e-05 6.9093e-05 7.05318e-05 8.04637e-05 8.10341e-05 6.30897e-05 6.58955e-05 7.79046e-05 7.86694e-05 7.05318e-05 7.30351e-05 8.10341e-05 8.20194e-05 6.58955e-05 6.93269e-05 7.86694e-05 8.13104e-05 8.04637e-05 8.10341e-05 7.94871e-05 8.05194e-05 7.79046e-05 7.86694e-05 8.59149e-05 8.35614e-05 8.10341e-05 8.20194e-05 8.05194e-05 8.24328e-05 7.86694e-05 8.13104e-05 8.35614e-05 8.3592e-05 0.0001024 8.98717e-05 9.01991e-05 8.37478e-05 5.91109e-05 6.36319e-05 6.23932e-05 6.68548e-05 8.98717e-05 8.14943e-05 8.37478e-05 7.97362e-05 6.36319e-05 7.10349e-05 6.68548e-05 7.18824e-05 9.01991e-05 8.37478e-05 8.02648e-05 7.87663e-05 6.23932e-05 6.68548e-05 6.9093e-05 7.05318e-05 8.37478e-05 7.97362e-05 7.87663e-05 7.82961e-05 6.68548e-05 7.18824e-05 7.05318e-05 7.30351e-05 5.91109e-05 6.36319e-05 6.23932e-05 6.68548e-05 5.36144e-06 3.58571e-05 3.62757e-05 5.14931e-05 6.36319e-05 7.10349e-05 6.68548e-05 7.18824e-05 3.58571e-05 6.3456e-05 5.14931e-05 6.61758e-05 6.23932e-05 6.68548e-05 6.9093e-05 7.05318e-05 3.62757e-05 5.14931e-05 6.30897e-05 6.58955e-05 6.68548e-05 7.18824e-05 7.05318e-05 7.30351e-05 5.14931e-05 6.61758e-05 6.58955e-05 6.93269e-05 9.45634e-05 7.89834e-05 0.000109583 8.69684e-05 8.03037e-05 7.25726e-05 8.67084e-05 7.7617e-05 7.89834e-05 6.98362e-05 8.69684e-05 7.19983e-05 7.25726e-05 6.80419e-05 7.7617e-05 7.15469e-05 0.000109583 8.69684e-05 9.28467e-05 6.98417e-05 8.67084e-05 7.7617e-05 7.14653e-05 6.40541e-05 8.69684e-05 7.19983e-05 6.98417e-05 5.96548e-05 7.7617e-05 7.15469e-05 6.40541e-05 6.28194e-05 8.03037e-05 7.25726e-05 8.67084e-05 7.7617e-05 7.20104e-05 6.94777e-05 7.49931e-05 7.28231e-05 7.25726e-05 6.80419e-05 7.7617e-05 7.15469e-05 6.94777e-05 6.80871e-05 7.28231e-05 7.14116e-05 8.67084e-05 7.7617e-05 7.14653e-05 6.40541e-05 7.49931e-05 7.28231e-05 6.32132e-05 6.52981e-05 7.7617e-05 7.15469e-05 6.40541e-05 6.28194e-05 7.28231e-05 7.14116e-05 6.52981e-05 6.55624e-05 6.98362e-05 5.86146e-05 7.19983e-05 6.77063e-05 6.80419e-05 6.05548e-05 7.15469e-05 7.00718e-05 5.86146e-05 5.53542e-05 6.77063e-05 6.98308e-05 6.05548e-05 5.78306e-05 7.00718e-05 7.17558e-05 7.19983e-05 6.77063e-05 5.96548e-05 6.70037e-05 7.15469e-05 7.00718e-05 6.28194e-05 7.06674e-05 6.77063e-05 6.98308e-05 6.70037e-05 7.55209e-05 7.00718e-05 7.17558e-05 7.06674e-05 7.59128e-05 6.80419e-05 6.05548e-05 7.15469e-05 7.00718e-05 6.80871e-05 6.41884e-05 7.14116e-05 7.28704e-05 6.05548e-05 5.78306e-05 7.00718e-05 7.17558e-05 6.41884e-05 6.22926e-05 7.28704e-05 7.52098e-05 7.15469e-05 7.00718e-05 6.28194e-05 7.06674e-05 7.14116e-05 7.28704e-05 6.55624e-05 7.29202e-05 7.00718e-05 7.17558e-05 7.06674e-05 7.59128e-05 7.28704e-05 7.52098e-05 7.29202e-05 7.83574e-05 7.20104e-05 6.94777e-05 7.49931e-05 7.28231e-05 6.25594e-05 6.26788e-05 7.18887e-05 7.15195e-05 6.94777e-05 6.80871e-05 7.28231e-05 7.14116e-05 6.26788e-05 6.41884e-05 7.15195e-05 7.28704e-05 7.49931e-05 7.28231e-05 6.32132e-05 6.52981e-05 7.18887e-05 7.15195e-05 7.15745e-05 7.256e-05 7.28231e-05 7.14116e-05 6.52981e-05 6.55624e-05 7.15195e-05 7.28704e-05 7.256e-05 7.29202e-05 6.25594e-05 6.26788e-05 7.18887e-05 7.15195e-05 5.63194e-05 5.88959e-05 7.18823e-05 7.34218e-05 6.26788e-05 6.41884e-05 7.15195e-05 7.28704e-05 5.88959e-05 6.22926e-05 7.34218e-05 7.52098e-05 7.18887e-05 7.15195e-05 7.15745e-05 7.256e-05 7.18823e-05 7.34218e-05 7.78228e-05 7.82728e-05 7.15195e-05 7.28704e-05 7.256e-05 7.29202e-05 7.34218e-05 7.52098e-05 7.82728e-05 7.83574e-05 9.45634e-05 7.89834e-05 8.03037e-05 7.25726e-05 5.40804e-05 4.91264e-05 5.38548e-05 5.50095e-05 7.89834e-05 6.98362e-05 7.25726e-05 6.80419e-05 4.91264e-05 5.86146e-05 5.50095e-05 6.05548e-05 8.03037e-05 7.25726e-05 7.20104e-05 6.94777e-05 5.38548e-05 5.50095e-05 6.25594e-05 6.26788e-05 7.25726e-05 6.80419e-05 6.94777e-05 6.80871e-05 5.50095e-05 6.05548e-05 6.26788e-05 6.41884e-05 5.40804e-05 4.91264e-05 5.38548e-05 5.50095e-05 5.36144e-06 3.0283e-05 2.95824e-05 4.43011e-05 4.91264e-05 5.86146e-05 5.50095e-05 6.05548e-05 3.0283e-05 5.53542e-05 4.43011e-05 5.78306e-05 5.38548e-05 5.50095e-05 6.25594e-05 6.26788e-05 2.95824e-05 4.43011e-05 5.63194e-05 5.88959e-05 5.50095e-05 6.05548e-05 6.26788e-05 6.41884e-05 4.43011e-05 5.78306e-05 5.88959e-05 6.22926e-05 0.000127104 0.000131495 0.00015723 0.000153936 0.000131899 0.000135553 0.000153265 0.000151052 0.000131495 0.000133256 0.000153936 0.000144168 0.000135553 0.000136273 0.000151052 0.000144953 0.00015723 0.000153936 0.000158231 0.00015552 0.000153265 0.000151052 0.000154663 0.000152831 0.000153936 0.000144168 0.00015552 0.00014309 0.000151052 0.000144953 0.000152831 0.000140463 0.000131899 0.000135553 0.000153265 0.000151052 0.000132327 0.000135934 0.000143684 0.000145465 0.000135553 0.000136273 0.000151052 0.000144953 0.000135934 0.000136662 0.000145465 0.000142017 0.000153265 0.000151052 0.000154663 0.000152831 0.000143684 0.000145465 0.000140641 0.000141113 0.000151052 0.000144953 0.000152831 0.000140463 0.000145465 0.000142017 0.000141113 0.000137248 0.000133256 0.000116176 0.000144168 0.000129793 0.000136273 0.000122353 0.000144953 0.000133748 0.000116176 9.64133e-05 0.000129793 0.000110837 0.000122353 0.000105534 0.000133748 0.000119566 0.000144168 0.000129793 0.00014309 0.000118101 0.000144953 0.000133748 0.000140463 0.000124217 0.000129793 0.000110837 0.000118101 9.4841e-05 0.000133748 0.000119566 0.000124217 0.000105758 0.000136273 0.000122353 0.000144953 0.000133748 0.000136662 0.000126145 0.000142017 0.000133281 0.000122353 0.000105534 0.000133748 0.000119566 0.000126145 0.000113793 0.000133281 0.000123719 0.000144953 0.000133748 0.000140463 0.000124217 0.000142017 0.000133281 0.000137248 0.000125516 0.000133748 0.000119566 0.000124217 0.000105758 0.000133281 0.000123719 0.000125516 0.000110462 0.000132327 0.000135934 0.000143684 0.000145465 0.00011409 0.000120784 0.000129168 0.000133966 0.000135934 0.000136662 0.000145465 0.000142017 0.000120784 0.000126145 0.000133966 0.000133281 0.000143684 0.000145465 0.000140641 0.000141113 0.000129168 0.000133966 0.000118299 0.000124443 0.000145465 0.000142017 0.000141113 0.000137248 0.000133966 0.000133281 0.000124443 0.000125516 0.00011409 0.000120784 0.000129168 0.000133966 9.3869e-05 0.000102958 0.000108743 0.000118098 0.000120784 0.000126145 0.000133966 0.000133281 0.000102958 0.000113793 0.000118098 0.000123719 0.000129168 0.000133966 0.000118299 0.000124443 0.000108743 0.000118098 9.14995e-05 0.000103464 0.000133966 0.000133281 0.000124443 0.000125516 0.000118098 0.000123719 0.000103464 0.000110462 0.000127104 0.000131495 0.000131899 0.000135553 7.16485e-05 9.55703e-05 9.5971e-05 0.000110033 0.000131495 0.000133256 0.000135553 0.000136273 9.55703e-05 0.000116176 0.000110033 0.000122353 0.000131899 0.000135553 0.000132327 0.000135934 9.5971e-05 0.000110033 0.00011409 0.000120784 0.000135553 0.000136273 0.000135934 0.000136662 0.000110033 0.000122353 0.000120784 0.000126145 7.16485e-05 9.55703e-05 9.5971e-05 0.000110033 5.36144e-06 5.27068e-05 5.40703e-05 7.97206e-05 9.55703e-05 0.000116176 0.000110033 0.000122353 5.27068e-05 9.64133e-05 7.97206e-05 0.000105534 9.5971e-05 0.000110033 0.00011409 0.000120784 5.40703e-05 7.97206e-05 9.3869e-05 0.000102958 0.000110033 0.000122353 0.000120784 0.000126145 7.97206e-05 0.000105534 0.000102958 0.000113793 0.000135827 0.000141263 0.000170879 0.000166081 0.000141016 0.000145452 0.000165954 0.000163984 0.000141263 0.00014147 0.000166081 0.000153866 0.000145452 0.000145739 0.000163984 0.000155349 0.000170879 0.000166081 0.000173632 0.00017075 0.000165954 0.000163984 0.000167055 0.000164978 0.000166081 0.000153866 0.00017075 0.000151202 0.000163984 0.000155349 0.000164978 0.000152344 0.000141016 0.000145452 0.000165954 0.000163984 0.000140786 0.00014539 0.000154173 0.000156825 0.000145452 0.000145739 0.000163984 0.000155349 0.00014539 0.000146322 0.000156825 0.000153394 0.000165954 0.000163984 0.000167055 0.000164978 0.000154173 0.000156825 0.000150615 0.000154775 0.000163984 0.000155349 0.000164978 0.000152344 0.000156825 0.000153394 0.000154775 0.000146815 0.00014147 0.000122365 0.000153866 0.000137852 0.000145739 0.000130158 0.000155349 0.000143662 0.000122365 0.000100855 0.000137852 0.000117785 0.000130158 0.000112189 0.000143662 0.0001287 0.000153866 0.000137852 0.000151202 0.000124737 0.000155349 0.000143662 0.000152344 0.000133817 0.000137852 0.000117785 0.000124737 0.00010102 0.000143662 0.0001287 0.000133817 0.000114305 0.000145739 0.000130158 0.000155349 0.000143662 0.000146322 0.000134244 0.000153394 0.000144569 0.000130158 0.000112189 0.000143662 0.0001287 0.000134244 0.000120303 0.000144569 0.000134269 0.000155349 0.000143662 0.000152344 0.000133817 0.000153394 0.000144569 0.000146815 0.000136336 0.000143662 0.0001287 0.000133817 0.000114305 0.000144569 0.000134269 0.000136336 0.000121017 0.000140786 0.00014539 0.000154173 0.000156825 0.00012126 0.000129384 0.000137404 0.000145227 0.00014539 0.000146322 0.000156825 0.000153394 0.000129384 0.000134244 0.000145227 0.000144569 0.000154173 0.000156825 0.000150615 0.000154775 0.000137404 0.000145227 0.000125641 0.000137151 0.000156825 0.000153394 0.000154775 0.000146815 0.000145227 0.000144569 0.000137151 0.000136336 0.00012126 0.000129384 0.000137404 0.000145227 9.94838e-05 0.000111158 0.000118514 0.000129949 0.000129384 0.000134244 0.000145227 0.000144569 0.000111158 0.000120303 0.000129949 0.000134269 0.000137404 0.000145227 0.000125641 0.000137151 0.000118514 0.000129949 9.87644e-05 0.000117921 0.000145227 0.000144569 0.000137151 0.000136336 0.000129949 0.000134269 0.000117921 0.000121017 0.000135827 0.000141263 0.000141016 0.000145452 7.38294e-05 0.000101385 0.000101729 0.000118457 0.000141263 0.00014147 0.000145452 0.000145739 0.000101385 0.000122365 0.000118457 0.000130158 0.000141016 0.000145452 0.000140786 0.00014539 0.000101729 0.000118457 0.00012126 0.000129384 0.000145452 0.000145739 0.00014539 0.000146322 0.000118457 0.000130158 0.000129384 0.000134244 7.38294e-05 0.000101385 0.000101729 0.000118457 5.36144e-06 5.74671e-05 5.84134e-05 8.74372e-05 0.000101385 0.000122365 0.000118457 0.000130158 5.74671e-05 0.000100855 8.74372e-05 0.000112189 0.000101729 0.000118457 0.00012126 0.000129384 5.84134e-05 8.74372e-05 9.94838e-05 0.000111158 0.000118457 0.000130158 0.000129384 0.000134244 8.74372e-05 0.000112189 0.000111158 0.000120303 9.67528e-05 8.37612e-05 0.000111128 9.33967e-05 8.47174e-05 7.8136e-05 9.18852e-05 8.46969e-05 8.37612e-05 7.45643e-05 9.33967e-05 8.00936e-05 7.8136e-05 7.34434e-05 8.46969e-05 7.89709e-05 0.000111128 9.33967e-05 9.63595e-05 7.76443e-05 9.18852e-05 8.46969e-05 7.77245e-05 7.22408e-05 9.33967e-05 8.00936e-05 7.76443e-05 6.88918e-05 8.46969e-05 7.89709e-05 7.22408e-05 7.05806e-05 8.47174e-05 7.8136e-05 9.18852e-05 8.46969e-05 7.71254e-05 7.51459e-05 8.19993e-05 8.04682e-05 7.8136e-05 7.34434e-05 8.46969e-05 7.89709e-05 7.51459e-05 7.37687e-05 8.04682e-05 7.85056e-05 9.18852e-05 8.46969e-05 7.77245e-05 7.22408e-05 8.19993e-05 8.04682e-05 7.22129e-05 7.36077e-05 8.46969e-05 7.89709e-05 7.22408e-05 7.05806e-05 8.04682e-05 7.85056e-05 7.36077e-05 7.35679e-05 7.45643e-05 6.22444e-05 8.00936e-05 7.29662e-05 7.34434e-05 6.43657e-05 7.89709e-05 7.50876e-05 6.22444e-05 5.7349e-05 7.29662e-05 7.15132e-05 6.43657e-05 6.01895e-05 7.50876e-05 7.33782e-05 8.00936e-05 7.29662e-05 6.88918e-05 7.26036e-05 7.89709e-05 7.50876e-05 7.05806e-05 7.56724e-05 7.29662e-05 7.15132e-05 7.26036e-05 7.83304e-05 7.50876e-05 7.33782e-05 7.56724e-05 7.87277e-05 7.34434e-05 6.43657e-05 7.89709e-05 7.50876e-05 7.37687e-05 6.84105e-05 7.85056e-05 7.81759e-05 6.43657e-05 6.01895e-05 7.50876e-05 7.33782e-05 6.84105e-05 6.50034e-05 7.81759e-05 7.73546e-05 7.89709e-05 7.50876e-05 7.05806e-05 7.56724e-05 7.85056e-05 7.81759e-05 7.35679e-05 7.79615e-05 7.50876e-05 7.33782e-05 7.56724e-05 7.87277e-05 7.81759e-05 7.73546e-05 7.79615e-05 8.13524e-05 7.71254e-05 7.51459e-05 8.19993e-05 8.04682e-05 6.73135e-05 6.75716e-05 7.79737e-05 7.77248e-05 7.51459e-05 7.37687e-05 8.04682e-05 7.85056e-05 6.75716e-05 6.84105e-05 7.77248e-05 7.81759e-05 8.19993e-05 8.04682e-05 7.22129e-05 7.36077e-05 7.79737e-05 7.77248e-05 7.83032e-05 8.02535e-05 8.04682e-05 7.85056e-05 7.36077e-05 7.35679e-05 7.77248e-05 7.81759e-05 8.02535e-05 7.79615e-05 6.73135e-05 6.75716e-05 7.79737e-05 7.77248e-05 6.05139e-05 6.24002e-05 7.52439e-05 7.66939e-05 6.75716e-05 6.84105e-05 7.77248e-05 7.81759e-05 6.24002e-05 6.50034e-05 7.66939e-05 7.73546e-05 7.79737e-05 7.77248e-05 7.83032e-05 8.02535e-05 7.52439e-05 7.66939e-05 8.29487e-05 8.25808e-05 7.77248e-05 7.81759e-05 8.02535e-05 7.79615e-05 7.66939e-05 7.73546e-05 8.25808e-05 8.13524e-05 9.67528e-05 8.37612e-05 8.47174e-05 7.8136e-05 5.23898e-05 5.32359e-05 5.69433e-05 5.9725e-05 8.37612e-05 7.45643e-05 7.8136e-05 7.34434e-05 5.32359e-05 6.22444e-05 5.9725e-05 6.43657e-05 8.47174e-05 7.8136e-05 7.71254e-05 7.51459e-05 5.69433e-05 5.9725e-05 6.73135e-05 6.75716e-05 7.8136e-05 7.34434e-05 7.51459e-05 7.37687e-05 5.9725e-05 6.43657e-05 6.75716e-05 6.84105e-05 5.23898e-05 5.32359e-05 5.69433e-05 5.9725e-05 5.36144e-06 3.0424e-05 3.31429e-05 4.65502e-05 5.32359e-05 6.22444e-05 5.9725e-05 6.43657e-05 3.0424e-05 5.7349e-05 4.65502e-05 6.01895e-05 5.69433e-05 5.9725e-05 6.73135e-05 6.75716e-05 3.31429e-05 4.65502e-05 6.05139e-05 6.24002e-05 5.9725e-05 6.43657e-05 6.75716e-05 6.84105e-05 4.65502e-05 6.01895e-05 6.24002e-05 6.50034e-05 6.06031e-05 6.69212e-05 7.33334e-05 7.67693e-05 6.25507e-05 6.79138e-05 7.43428e-05 7.76872e-05 6.69212e-05 7.89126e-05 7.67693e-05 8.54267e-05 6.79138e-05 7.7127e-05 7.76872e-05 8.25917e-05 7.33334e-05 7.67693e-05 7.83126e-05 7.59699e-05 7.43428e-05 7.76872e-05 7.82036e-05 7.69312e-05 7.67693e-05 8.54267e-05 7.59699e-05 7.29463e-05 7.76872e-05 8.25917e-05 7.69312e-05 7.33515e-05 6.25507e-05 6.79138e-05 7.43428e-05 7.76872e-05 6.58296e-05 6.99223e-05 7.80139e-05 7.84496e-05 6.79138e-05 7.7127e-05 7.76872e-05 8.25917e-05 6.99223e-05 7.60564e-05 7.84496e-05 8.06542e-05 7.43428e-05 7.76872e-05 7.82036e-05 7.69312e-05 7.80139e-05 7.84496e-05 7.90444e-05 7.88626e-05 7.76872e-05 8.25917e-05 7.69312e-05 7.33515e-05 7.84496e-05 8.06542e-05 7.88626e-05 7.43665e-05 7.89126e-05 8.94132e-05 8.54267e-05 0.000102482 7.7127e-05 8.23381e-05 8.25917e-05 9.04188e-05 8.94132e-05 0.000101679 0.000102482 0.00012115 8.23381e-05 8.84969e-05 9.04188e-05 9.81819e-05 8.54267e-05 0.000102482 7.29463e-05 8.49977e-05 8.25917e-05 9.04188e-05 7.33515e-05 7.60445e-05 0.000102482 0.00012115 8.49977e-05 0.000102757 9.04188e-05 9.81819e-05 7.60445e-05 8.18503e-05 7.7127e-05 8.23381e-05 8.25917e-05 9.04188e-05 7.60564e-05 7.77427e-05 8.06542e-05 8.39159e-05 8.23381e-05 8.84969e-05 9.04188e-05 9.81819e-05 7.77427e-05 7.93839e-05 8.39159e-05 8.59326e-05 8.25917e-05 9.04188e-05 7.33515e-05 7.60445e-05 8.06542e-05 8.39159e-05 7.43665e-05 7.51621e-05 9.04188e-05 9.81819e-05 7.60445e-05 8.18503e-05 8.39159e-05 8.59326e-05 7.51621e-05 7.55608e-05 6.58296e-05 6.99223e-05 7.80139e-05 7.84496e-05 6.188e-05 6.85856e-05 7.57627e-05 7.88686e-05 6.99223e-05 7.60564e-05 7.84496e-05 8.06542e-05 6.85856e-05 7.77427e-05 7.88686e-05 8.39159e-05 7.80139e-05 7.84496e-05 7.90444e-05 7.88626e-05 7.57627e-05 7.88686e-05 8.09738e-05 7.94943e-05 7.84496e-05 8.06542e-05 7.88626e-05 7.43665e-05 7.88686e-05 8.39159e-05 7.94943e-05 7.51621e-05 6.188e-05 6.85856e-05 7.57627e-05 7.88686e-05 5.84762e-05 6.7335e-05 7.40718e-05 7.94868e-05 6.85856e-05 7.77427e-05 7.88686e-05 8.39159e-05 6.7335e-05 7.93839e-05 7.94868e-05 8.59326e-05 7.57627e-05 7.88686e-05 8.09738e-05 7.94943e-05 7.40718e-05 7.94868e-05 8.00962e-05 7.99949e-05 7.88686e-05 8.39159e-05 7.94943e-05 7.51621e-05 7.94868e-05 8.59326e-05 7.99949e-05 7.55608e-05 6.06031e-05 6.69212e-05 6.25507e-05 6.79138e-05 3.45816e-05 6.13299e-05 4.82148e-05 6.46077e-05 6.69212e-05 7.89126e-05 6.79138e-05 7.7127e-05 6.13299e-05 8.94132e-05 6.46077e-05 8.23381e-05 6.25507e-05 6.79138e-05 6.58296e-05 6.99223e-05 4.82148e-05 6.46077e-05 6.188e-05 6.85856e-05 6.79138e-05 7.7127e-05 6.99223e-05 7.60564e-05 6.46077e-05 8.23381e-05 6.85856e-05 7.77427e-05 3.45816e-05 6.13299e-05 4.82148e-05 6.46077e-05 5.36144e-06 6.02336e-05 3.2611e-05 6.19114e-05 6.13299e-05 8.94132e-05 6.46077e-05 8.23381e-05 6.02336e-05 0.000101679 6.19114e-05 8.84969e-05 4.82148e-05 6.46077e-05 6.188e-05 6.85856e-05 3.2611e-05 6.19114e-05 5.84762e-05 6.7335e-05 6.46077e-05 8.23381e-05 6.85856e-05 7.77427e-05 6.19114e-05 8.84969e-05 6.7335e-05 7.93839e-05 6.06031e-05 6.25507e-05 7.33334e-05 7.43428e-05 6.39558e-05 6.54958e-05 7.41547e-05 7.55802e-05 6.25507e-05 6.58296e-05 7.43428e-05 7.80139e-05 6.54958e-05 6.81266e-05 7.55802e-05 7.74783e-05 7.33334e-05 7.43428e-05 7.83126e-05 7.82036e-05 7.41547e-05 7.55802e-05 7.78334e-05 7.86694e-05 7.43428e-05 7.80139e-05 7.82036e-05 7.90444e-05 7.55802e-05 7.74783e-05 7.86694e-05 7.96268e-05 6.39558e-05 6.54958e-05 7.41547e-05 7.55802e-05 7.32452e-05 7.19035e-05 7.97979e-05 7.89487e-05 6.54958e-05 6.81266e-05 7.55802e-05 7.74783e-05 7.19035e-05 7.22378e-05 7.89487e-05 7.7886e-05 7.41547e-05 7.55802e-05 7.78334e-05 7.86694e-05 7.97979e-05 7.89487e-05 7.11626e-05 7.22255e-05 7.55802e-05 7.74783e-05 7.86694e-05 7.96268e-05 7.89487e-05 7.7886e-05 7.22255e-05 7.3482e-05 6.58296e-05 6.188e-05 7.80139e-05 7.57627e-05 6.81266e-05 6.51953e-05 7.74783e-05 7.56532e-05 6.188e-05 5.84762e-05 7.57627e-05 7.40718e-05 6.51953e-05 6.37673e-05 7.56532e-05 7.49215e-05 7.80139e-05 7.57627e-05 7.90444e-05 8.09738e-05 7.74783e-05 7.56532e-05 7.96268e-05 7.84095e-05 7.57627e-05 7.40718e-05 8.09738e-05 8.00962e-05 7.56532e-05 7.49215e-05 7.84095e-05 7.67591e-05 6.81266e-05 6.51953e-05 7.74783e-05 7.56532e-05 7.22378e-05 7.17268e-05 7.7886e-05 7.78866e-05 6.51953e-05 6.37673e-05 7.56532e-05 7.49215e-05 7.17268e-05 7.24606e-05 7.78866e-05 7.76443e-05 7.74783e-05 7.56532e-05 7.96268e-05 7.84095e-05 7.7886e-05 7.78866e-05 7.3482e-05 7.21452e-05 7.56532e-05 7.49215e-05 7.84095e-05 7.67591e-05 7.78866e-05 7.76443e-05 7.21452e-05 6.89669e-05 7.32452e-05 7.19035e-05 7.97979e-05 7.89487e-05 8.10439e-05 7.42915e-05 9.22904e-05 8.2043e-05 7.19035e-0