# vtk DataFile Version 3.0
#This file was generated by the deal.II library on 2025/4/16 at 17:59:38
ASCII
DATASET UNSTRUCTURED_GRID

POINTS 8192 double
-0.351845 0.000304905 -0.35634
-0.460267 -0.00140314 -0.300618
-0.527116 -0.00979706 -0.531611
-0.637648 -0.00962924 -0.426212
-0.412659 -0.117036 -0.302325
-0.506176 -0.1055 -0.260653
-0.589612 -0.165551 -0.43435
-0.675452 -0.144237 -0.358499
-0.460267 -0.00140314 -0.300618
-0.56697 0.000264861 -0.237788
-0.637648 -0.00962924 -0.426212
-0.741797 -0.00543654 -0.313543
-0.506176 -0.1055 -0.260653
-0.598427 -0.0911313 -0.214139
-0.675452 -0.144237 -0.358499
-0.757311 -0.12042 -0.278565
-0.527116 -0.00979706 -0.531611
-0.637648 -0.00962924 -0.426212
-0.705477 0.000260041 -0.709793
-0.819955 -0.00261593 -0.550722
-0.589612 -0.165551 -0.43435
-0.675452 -0.144237 -0.358499
-0.772231 -0.202418 -0.565954
-0.850094 -0.173806 -0.45394
-0.637648 -0.00962924 -0.426212
-0.741797 -0.00543654 -0.313543
-0.819955 -0.00261593 -0.550722
-0.921792 0.000239418 -0.384583
-0.675452 -0.144237 -0.358499
-0.757311 -0.12042 -0.278565
-0.850094 -0.173806 -0.45394
-0.920753 -0.142613 -0.338961
-0.412659 -0.117036 -0.302325
-0.506176 -0.1055 -0.260653
-0.589612 -0.165551 -0.43435
-0.675452 -0.144237 -0.358499
-0.469494 -0.234999 -0.237825
-0.548804 -0.210519 -0.213345
-0.643285 -0.319412 -0.322239
-0.706899 -0.278435 -0.281262
-0.506176 -0.1055 -0.260653
-0.598427 -0.0911313 -0.214139
-0.675452 -0.144237 -0.358499
-0.757311 -0.12042 -0.278565
-0.548804 -0.210519 -0.213345
-0.627234 -0.183681 -0.18598
-0.706899 -0.278435 -0.281262
-0.768209 -0.236017 -0.238316
-0.589612 -0.165551 -0.43435
-0.675452 -0.144237 -0.358499
-0.772231 -0.202418 -0.565954
-0.850094 -0.173806 -0.45394
-0.643285 -0.319412 -0.322239
-0.706899 -0.278435 -0.281262
-0.823111 -0.398882 -0.401517
-0.86969 -0.342134 -0.344768
-0.675452 -0.144237 -0.358499
-0.757311 -0.12042 -0.278565
-0.850094 -0.173806 -0.45394
-0.920753 -0.142613 -0.338961
-0.706899 -0.278435 -0.281262
-0.768209 -0.236017 -0.238316
-0.86969 -0.342134 -0.344768
-0.912665 -0.284825 -0.286946
-0.56697 0.000264861 -0.237788
-0.534562 -0.00217417 -0.117225
-0.741797 -0.00543654 -0.313543
-0.747043 -0.0101866 -0.160338
-0.598427 -0.0911313 -0.214139
-0.568083 -0.105627 -0.10727
-0.757311 -0.12042 -0.278565
-0.755275 -0.142115 -0.143758
-0.534562 -0.00217417 -0.117225
-0.49759 0.000301802 -0.000587416
-0.747043 -0.0101866 -0.160338
-0.743275 -0.00963949 -0.0105287
-0.568083 -0.105627 -0.10727
-0.534471 -0.115549 -0.00303059
-0.755275 -0.142115 -0.143758
-0.746953 -0.158662 -0.011043
-0.741797 -0.00543654 -0.313543
-0.747043 -0.0101866 -0.160338
-0.921792 0.000239418 -0.384583
-0.966918 -0.00306411 -0.191833
-0.757311 -0.12042 -0.278565
-0.755275 -0.142115 -0.143758
-0.920753 -0.142613 -0.338961
-0.948757 -0.169646 -0.171104
-0.747043 -0.0101866 -0.160338
-0.743275 -0.00963949 -0.0105287
-0.966918 -0.00306411 -0.191833
-0.997284 0.000315613 -0.000509563
-0.755275 -0.142115 -0.143758
-0.746953 -0.158662 -0.011043
-0.948757 -0.169646 -0.171104
-0.966685 -0.190324 -0.00383935
-0.598427 -0.0911313 -0.214139
-0.568083 -0.105627 -0.10727
-0.757311 -0.12042 -0.278565
-0.755275 -0.142115 -0.143758
-0.627234 -0.183681 -0.18598
-0.598136 -0.211432 -0.0925475
-0.768209 -0.236017 -0.238316
-0.757021 -0.275858 -0.121836
-0.568083 -0.105627 -0.10727
-0.534471 -0.115549 -0.00303059
-0.755275 -0.142115 -0.143758
-0.746953 -0.158662 -0.011043
-0.598136 -0.211432 -0.0925475
-0.566629 -0.234986 -0.000488609
-0.757021 -0.275858 -0.121836
-0.741456 -0.310741 -0.00619001
-0.757311 -0.12042 -0.278565
-0.755275 -0.142115 -0.143758
-0.920753 -0.142613 -0.338961
-0.948757 -0.169646 -0.171104
-0.768209 -0.236017 -0.238316
-0.757021 -0.275858 -0.121836
-0.912665 -0.284825 -0.286946
-0.920339 -0.336404 -0.143853
-0.755275 -0.142115 -0.143758
-0.746953 -0.158662 -0.011043
-0.948757 -0.169646 -0.171104
-0.966685 -0.190324 -0.00383935
-0.757021 -0.275858 -0.121836
-0.741456 -0.310741 -0.00619001
-0.920339 -0.336404 -0.143853
-0.921226 -0.381901 -0.000422162
-0.469494 -0.234999 -0.237825
-0.548804 -0.210519 -0.213345
-0.643285 -0.319412 -0.322239
-0.706899 -0.278435 -0.281262
-0.412361 -0.298459 -0.118716
-0.505878 -0.256787 -0.107181
-0.589314 -0.430484 -0.167232
-0.675155 -0.354633 -0.145918
-0.548804 -0.210519 -0.213345
-0.627234 -0.183681 -0.18598
-0.706899 -0.278435 -0.281262
-0.768209 -0.236017 -0.238316
-0.505878 -0.256787 -0.107181
-0.598136 -0.211432 -0.0925475
-0.675155 -0.354633 -0.145918
-0.757021 -0.275858 -0.121836
-0.643285 -0.319412 -0.322239
-0.706899 -0.278435 -0.281262
-0.823111 -0.398882 -0.401517
-0.86969 -0.342134 -0.344768
-0.589314 -0.430484 -0.167232
-0.675155 -0.354633 -0.145918
-0.771714 -0.562121 -0.203878
-0.849577 -0.450107 -0.175266
-0.706899 -0.278435 -0.281262
-0.768209 -0.236017 -0.238316
-0.86969 -0.342134 -0.344768
-0.912665 -0.284825 -0.286946
-0.675155 -0.354633 -0.145918
-0.757021 -0.275858 -0.121836
-0.849577 -0.450107 -0.175266
-0.920339 -0.336404 -0.143853
-0.412361 -0.298459 -0.118716
-0.505878 -0.256787 -0.107181
-0.589314 -0.430484 -0.167232
-0.675155 -0.354633 -0.145918
-0.351598 -0.352178 -0.000545256
-0.46002 -0.296456 -0.0022533
-0.526869 -0.527449 -0.0106472
-0.637401 -0.42205 -0.0104794
-0.505878 -0.256787 -0.107181
-0.598136 -0.211432 -0.0925475
-0.675155 -0.354633 -0.145918
-0.757021 -0.275858 -0.121836
-0.46002 -0.296456 -0.0022533
-0.566629 -0.234986 -0.000488609
-0.637401 -0.42205 -0.0104794
-0.741456 -0.310741 -0.00619001
-0.589314 -0.430484 -0.167232
-0.675155 -0.354633 -0.145918
-0.771714 -0.562121 -0.203878
-0.849577 -0.450107 -0.175266
-0.526869 -0.527449 -0.0106472
-0.637401 -0.42205 -0.0104794
-0.704921 -0.705553 -0.000476872
-0.819399 -0.546481 -0.00335284
-0.675155 -0.354633 -0.145918
-0.757021 -0.275858 -0.121836
-0.849577 -0.450107 -0.175266
-0.920339 -0.336404 -0.143853
-0.637401 -0.42205 -0.0104794
-0.741456 -0.310741 -0.00619001
-0.819399 -0.546481 -0.00335284
-0.921226 -0.381901 -0.000422162
-0.351845 0.000304905 -0.35634
-0.460267 -0.00140314 -0.300618
-0.412659 -0.117036 -0.302325
-0.506176 -0.1055 -0.260653
-0.172632 -0.0141384 -0.176219
-0.352193 -0.0138106 -0.154475
-0.292908 -0.154512 -0.15696
-0.430503 -0.13378 -0.136227
-0.460267 -0.00140314 -0.300618
-0.56697 0.000264861 -0.237788
-0.506176 -0.1055 -0.260653
-0.598427 -0.0911313 -0.214139
-0.352193 -0.0138106 -0.154475
-0.534562 -0.00217417 -0.117225
-0.430503 -0.13378 -0.136227
-0.568083 -0.105627 -0.10727
-0.412659 -0.117036 -0.302325
-0.506176 -0.1055 -0.260653
-0.469494 -0.234999 -0.237825
-0.548804 -0.210519 -0.213345
-0.292908 -0.154512 -0.15696
-0.430503 -0.13378 -0.136227
-0.412361 -0.298459 -0.118716
-0.505878 -0.256787 -0.107181
-0.506176 -0.1055 -0.260653
-0.598427 -0.0911313 -0.214139
-0.548804 -0.210519 -0.213345
-0.627234 -0.183681 -0.18598
-0.430503 -0.13378 -0.136227
-0.568083 -0.105627 -0.10727
-0.505878 -0.256787 -0.107181
-0.598136 -0.211432 -0.0925475
-0.172632 -0.0141384 -0.176219
-0.352193 -0.0138106 -0.154475
-0.292908 -0.154512 -0.15696
-0.430503 -0.13378 -0.136227
0.00115611 0.000431439 -0.000864833
-0.24264 -0.0121961 -0.0134923
-0.172978 -0.173702 -0.0153648
-0.352538 -0.151957 -0.0150369
-0.352193 -0.0138106 -0.154475
-0.534562 -0.00217417 -0.117225
-0.430503 -0.13378 -0.136227
-0.568083 -0.105627 -0.10727
-0.24264 -0.0121961 -0.0134923
-0.49759 0.000301802 -0.000587416
-0.352538 -0.151957 -0.0150369
-0.534471 -0.115549 -0.00303059
-0.292908 -0.154512 -0.15696
-0.430503 -0.13378 -0.136227
-0.412361 -0.298459 -0.118716
-0.505878 -0.256787 -0.107181
-0.172978 -0.173702 -0.0153648
-0.352538 -0.151957 -0.0150369
-0.351598 -0.352178 -0.000545256
-0.46002 -0.296456 -0.0022533
-0.430503 -0.13378 -0.136227
-0.568083 -0.105627 -0.10727
-0.505878 -0.256787 -0.107181
-0.598136 -0.211432 -0.0925475
-0.352538 -0.151957 -0.0150369
-0.534471 -0.115549 -0.00303059
-0.46002 -0.296456 -0.0022533
-0.566629 -0.234986 -0.000488609
0.352182 -9.41853e-05 0.356166
0.409812 0.117567 0.287931
0.536048 -0.028272 0.540031
0.595392 0.137164 0.404969
0.458622 -0.00434532 0.293701
0.50221 0.102304 0.245633
0.640283 -0.0302101 0.420404
0.676888 0.118385 0.331785
0.409812 0.117567 0.287931
0.469783 0.235201 0.237623
0.595392 0.137164 0.404969
0.659426 0.311764 0.314158
0.50221 0.102304 0.245633
0.546957 0.207977 0.210398
0.676888 0.118385 0.331785
0.715992 0.26921 0.271615
0.536048 -0.028272 0.540031
0.595392 0.137164 0.404969
0.705865 -5.77982e-05 0.709624
0.756562 0.19326 0.522208
0.640283 -0.0302101 0.420404
0.676888 0.118385 0.331785
0.806629 -0.0162053 0.547012
0.83034 0.161643 0.424256
0.595392 0.137164 0.404969
0.659426 0.311764 0.314158
0.756562 0.19326 0.522208
0.814903 0.407769 0.409909
0.676888 0.118385 0.331785
0.715992 0.26921 0.271615
0.83034 0.161643 0.424256
0.858313 0.346258 0.348416
0.458622 -0.00434532 0.293701
0.50221 0.102304 0.245633
0.640283 -0.0302101 0.420404
0.676888 0.118385 0.331785
0.567258 -9.29828e-05 0.237617
0.59672 0.0930022 0.207789
0.752129 -0.0139105 0.306099
0.764849 0.108246 0.260771
0.50221 0.102304 0.245633
0.546957 0.207977 0.210398
0.676888 0.118385 0.331785
0.715992 0.26921 0.271615
0.59672 0.0930022 0.207789
0.626642 0.184718 0.186649
0.764849 0.108246 0.260771
0.778954 0.229097 0.231025
0.640283 -0.0302101 0.420404
0.676888 0.118385 0.331785
0.806629 -0.0162053 0.547012
0.83034 0.161643 0.424256
0.752129 -0.0139105 0.306099
0.764849 0.108246 0.260771
0.922105 -7.82275e-05 0.384385
0.915749 0.143592 0.324469
0.676888 0.118385 0.331785
0.715992 0.26921 0.271615
0.83034 0.161643 0.424256
0.858313 0.346258 0.348416
0.764849 0.108246 0.260771
0.778954 0.229097 0.231025
0.915749 0.143592 0.324469
0.912 0.286492 0.288181
0.469783 0.235201 0.237623
0.409416 0.284455 0.118835
0.659426 0.311764 0.314158
0.594997 0.401511 0.138419
0.546957 0.207977 0.210398
0.501814 0.242158 0.103571
0.715992 0.26921 0.271615
0.676493 0.32832 0.119644
0.409416 0.284455 0.118835
0.351781 0.352394 0.000291821
0.594997 0.401511 0.138419
[...]
POINT_DATA 8192
SCALARS A_0 double 1
LOOKUP_TABLE default
0.999222 1.00189 1.00238 1.00188 0.998785 0.996424 0.999642 0.995475 1.00189 0.996552 1.00188 0.994809 0.996424 0.992217 0.995475 0.991022 1.00238 1.00188 1.00447 1.00159 0.999642 0.995475 0.999424 0.994697 1.00188 0.994809 1.00159 0.995712 0.995475 0.991022 0.994697 0.990492 0.998785 0.996424 0.999642 0.995475 0.999039 0.99539 0.997755 0.99416 0.996424 0.992217 0.995475 0.991022 0.99539 0.993808 0.99416 0.992782 0.999642 0.995475 0.999424 0.994697 0.997755 0.99416 0.996791 0.992716 0.995475 0.991022 0.994697 0.990492 0.99416 0.992782 0.992716 0.992104 0.996552 0.99521 0.994809 0.992049 0.992217 0.991955 0.991022 0.989019 0.99521 0.996716 0.992049 0.990003 0.991955 0.992713 0.989019 0.987455 0.994809 0.992049 0.995712 0.992092 0.991022 0.989019 0.990492 0.987682 0.992049 0.990003 0.992092 0.989626 0.989019 0.987455 0.987682 0.988121 0.992217 0.991955 0.991022 0.989019 0.993808 0.994771 0.992782 0.992631 0.991955 0.992713 0.989019 0.987455 0.994771 0.994998 0.992631 0.99217 0.991022 0.989019 0.990492 0.987682 0.992782 0.992631 0.992104 0.992328 0.989019 0.987455 0.987682 0.988121 0.992631 0.99217 0.992328 0.992015 0.999039 0.99539 0.997755 0.99416 0.996656 0.995101 0.992189 0.99074 0.99539 0.993808 0.99416 0.992782 0.995101 0.994771 0.99074 0.992631 0.997755 0.99416 0.996791 0.992716 0.992189 0.99074 0.988519 0.990006 0.99416 0.992782 0.992716 0.992104 0.99074 0.992631 0.990006 0.992328 0.996656 0.995101 0.992189 0.99074 0.996398 0.99497 0.991838 0.988722 0.995101 0.994771 0.99074 0.992631 0.99497 0.994998 0.988722 0.99217 0.992189 0.99074 0.988519 0.990006 0.991838 0.988722 0.991211 0.989776 0.99074 0.992631 0.990006 0.992328 0.988722 0.99217 0.989776 0.992015 0.999222 1.00189 0.998785 0.996424 0.997889 0.997978 0.997054 0.993767 1.00189 0.996552 0.996424 0.992217 0.997978 0.99521 0.993767 0.991955 0.998785 0.996424 0.999039 0.99539 0.997054 0.993767 0.996656 0.995101 0.996424 0.992217 0.99539 0.993808 0.993767 0.991955 0.995101 0.994771 0.997889 0.997978 0.997054 0.993767 0.995555 0.995608 0.995382 0.992963 0.997978 0.99521 0.993767 0.991955 0.995608 0.996716 0.992963 0.992713 0.997054 0.993767 0.996656 0.995101 0.995382 0.992963 0.996398 0.99497 0.993767 0.991955 0.995101 0.994771 0.992963 0.992713 0.99497 0.994998 1.00008 0.998746 1.0037 0.999222 0.999448 0.996408 1.0001 0.995464 0.998746 0.99634 0.999222 0.995478 0.996408 0.995551 0.995464 0.994078 1.0037 0.999222 1.00424 0.999 1.0001 0.995464 0.999783 0.994898 0.999222 0.995478 0.999 0.995134 0.995464 0.994078 0.994898 0.993338 0.999448 0.996408 1.0001 0.995464 0.994025 0.992223 0.993557 0.991072 0.996408 0.995551 0.995464 0.994078 0.992223 0.994065 0.991072 0.992649 1.0001 0.995464 0.999783 0.994898 0.993557 0.991072 0.993619 0.991693 0.995464 0.994078 0.994898 0.993338 0.991072 0.992649 0.991693 0.991445 0.99634 0.996297 0.995478 0.9908 0.995551 0.99423 0.994078 0.989246 0.996297 0.997847 0.9908 0.99304 0.99423 0.992721 0.989246 0.986885 0.995478 0.9908 0.995134 0.991794 0.994078 0.989246 0.993338 0.990768 0.9908 0.99304 0.991794 0.994495 0.989246 0.986885 0.990768 0.986711 0.995551 0.99423 0.994078 0.989246 0.994065 0.995102 0.992649 0.992675 0.99423 0.992721 0.989246 0.986885 0.995102 0.995565 0.992675 0.992643 0.994078 0.989246 0.993338 0.990768 0.992649 0.992675 0.991445 0.993118 0.989246 0.986885 0.990768 0.986711 0.992675 0.992643 0.993118 0.99481 0.994025 0.992223 0.993557 0.991072 0.993494 0.993856 0.991122 0.991288 0.992223 0.994065 0.991072 0.992649 0.993856 0.995102 0.991288 0.992675 0.993557 0.991072 0.993619 0.991693 0.991122 0.991288 0.992297 0.992431 0.991072 0.992649 0.991693 0.991445 0.991288 0.992675 0.992431 0.993118 0.993494 0.993856 0.991122 0.991288 0.993668 0.995416 0.989601 0.989684 0.993856 0.995102 0.991288 0.992675 0.995416 0.995565 0.989684 0.992643 0.991122 0.991288 0.992297 0.992431 0.989601 0.989684 0.98959 0.99045 0.991288 0.992675 0.992431 0.993118 0.989684 0.992643 0.99045 0.99481 1.00008 0.998746 0.999448 0.996408 0.998261 0.996322 0.995891 0.994986 0.998746 0.99634 0.996408 0.995551 0.996322 0.996297 0.994986 0.99423 0.999448 0.996408 0.994025 0.992223 0.995891 0.994986 0.993494 0.993856 0.996408 0.995551 0.992223 0.994065 0.994986 0.99423 0.993856 0.995102 0.998261 0.996322 0.995891 0.994986 0.995555 1.00521 0.998953 0.992122 0.996322 0.996297 0.994986 0.99423 1.00521 0.997847 0.992122 0.992721 0.995891 0.994986 0.993494 0.993856 0.998953 0.992122 0.993668 0.995416 0.994986 0.99423 0.993856 0.995102 0.992122 0.992721 0.995416 0.995565 1.00933 1.00756 1.01243 1.01392 1.00749 1.00719 1.01452 1.01306 1.00756 1.00959 1.01392 1.01331 1.00719 1.00891 1.01306 1.011 1.01243 1.01392 1.01163 1.01412 1.01452 1.01306 1.01076 1.0106 1.01392 1.01331 1.01412 1.01149 1.01306 1.011 1.0106 1.01072 1.00749 1.00719 1.01452 1.01306 1.01035 1.00999 1.01424 1.01376 1.00719 1.00891 1.01306 1.011 1.00999 1.01051 1.01376 1.01123 1.01452 1.01306 1.01076 1.0106 1.01424 1.01376 1.00899 1.0124 1.01306 1.011 1.0106 1.01072 1.01376 1.01123 1.0124 1.01026 1.00959 1.00602 1.01331 1.00832 1.00891 1.00539 1.011 1.00829 1.00602 1.00165 1.00832 1.00163 1.00539 1.00076 1.00829 1.0048 1.01331 1.00832 1.01149 1.00944 1.011 1.00829 1.01072 1.01055 1.00832 1.00163 1.00944 1.00482 1.00829 1.0048 1.01055 1.00494 1.00891 1.00539 1.011 1.00829 1.01051 1.00914 1.01123 1.00989 1.00539 1.00076 1.00829 1.0048 1.00914 1.00597 1.00989 1.00864 1.011 1.00829 1.01072 1.01055 1.01123 1.00989 1.01026 1.00929 1.00829 1.0048 1.01055 1.00494 1.00989 1.00864 1.00929 1.00774 1.01035 1.00999 1.01424 1.01376 1.00611 1.00615 1.00866 1.00985 1.00999 1.01051 1.01376 1.01123 1.00615 1.00914 1.00985 1.00989 1.01424 1.01376 1.00899 1.0124 1.00866 1.00985 1.00985 1.01085 1.01376 1.01123 1.0124 1.01026 1.00985 1.00989 1.01085 1.00929 1.00611 1.00615 1.00866 1.00985 1.0005 1.00119 1.00222 1.00365 1.00615 1.00914 1.00985 1.00989 1.00119 1.00597 1.00365 1.00864 1.00866 1.00985 1.00985 1.01085 1.00222 1.00365 1.00426 1.00527 1.00985 1.00989 1.01085 1.00929 1.00365 1.00864 1.00527 1.00774 1.00933 1.00756 1.00749 1.00719 0.993776 0.999546 0.999568 0.997795 1.00756 1.00959 1.00719 1.00891 0.999546 1.00602 0.997795 1.00539 1.00749 1.00719 1.01035 1.00999 0.999568 0.997795 1.00611 1.00615 1.00719 1.00891 1.00999 1.01051 0.997795 1.00539 1.00615 1.00914 0.993776 0.999546 0.999568 0.997795 0.995555 0.988702 0.992608 0.997881 0.999546 1.00602 0.997795 1.00539 0.988702 1.00165 0.997881 1.00076 0.999568 0.997795 1.00611 1.00615 0.992608 0.997881 1.0005 1.00119 0.997795 1.00539 1.00615 1.00914 0.997881 1.00076 1.00119 1.00597 1.00911 1.00947 1.01528 1.01501 1.00609 1.00742 1.01148 1.01102 1.00947 1.01192 1.01501 1.01391 1.00742 1.01062 1.01102 1.01344 1.01528 1.01501 1.01978 1.01646 1.01148 1.01102 1.01904 1.01629 1.01501 1.01391 1.01646 1.01057 1.01102 1.01344 1.01629 1.01152 1.00609 1.00742 1.01148 1.01102 1.00895 1.00934 1.01144 1.01256 1.00742 1.01062 1.01102 1.01344 1.00934 1.01144 1.01256 1.01492 1.01148 1.01102 1.01904 1.01629 1.01144 1.01256 1.01265 1.01567 1.01102 1.01344 1.01629 1.01152 1.01256 1.01492 1.01567 1.01657 1.01192 1.00683 1.01391 1.00891 1.01062 1.00588 1.01344 1.00761 1.00683 0.999466 1.00891 1.00238 1.00588 1.00094 1.00761 1.00535 1.01391 1.00891 1.01057 1.0129 1.01344 1.00761 1.01152 1.01003 1.00891 1.00238 1.0129 1.00214 1.00761 1.00535 1.01003 1.00589 1.01062 1.00588 1.01344 1.00761 1.01144 1.00912 1.01492 1.0126 1.00588 1.00094 1.00761 1.00535 1.00912 1.00645 1.0126 1.00988 1.01344 1.00761 1.01152 1.01003 1.01492 1.0126 1.01657 1.01629 1.00761 1.00535 1.01003 1.00589 1.0126 1.00988 1.01629 1.01347 1.00895 1.00934 1.01144 1.01256 1.00472 1.00634 1.00719 1.00878 1.00934 1.01144 1.01256 1.01492 1.00634 1.00912 1.00878 1.0126 1.01144 1.01256 1.01265 1.01567 1.00719 1.00878 1.00396 1.0124 1.01256 1.01492 1.01567 1.01657 1.00878 1.0126 1.0124 1.01629 1.00472 1.00634 1.00719 1.00878 0.99772 1.00188 1.00106 1.00555 1.00634 1.00912 1.00878 1.0126 1.00188 1.00645 1.00555 1.00988 1.00719 1.00878 1.00396 1.0124 1.00106 1.00555 1.00067 1.00425 1.00878 1.0126 1.0124 1.01629 1.00555 1.00988 1.00425 1.01347 1.00911 1.00947 1.00609 1.00742 0.996256 0.9999 0.996471 0.997613 1.00947 1.01192 1.00742 1.01062 0.9999 1.00683 0.997613 1.00588 1.00609 1.00742 1.00895 1.00934 0.996471 0.997613 1.00472 1.00634 1.00742 1.01062 1.00934 1.01144 0.997613 1.00588 1.00634 1.00912 0.996256 0.9999 0.996471 0.997613 0.995555 0.991768 0.995149 0.9948 0.9999 1.00683 0.997613 1.00588 0.991768 0.999466 0.9948 1.00094 0.996471 0.997613 1.00472 1.00634 0.995149 0.9948 0.99772 1.00188 0.997613 1.00588 1.00634 1.00912 0.9948 1.00094 1.00188 1.00645 1.00029 0.999599 1.00242 0.999717 0.999482 0.9966 0.999888 0.995418 0.999599 0.999593 0.999717 0.998319 0.9966 0.995839 0.995418 0.994319 1.00242 0.999717 1.00495 1.00021 0.999888 0.995418 0.99977 0.996012 0.999717 0.998319 1.00021 0.998082 0.995418 0.994319 0.996012 0.995121 0.999482 0.9966 0.999888 0.995418 0.994494 0.99243 0.993572 0.990617 0.9966 0.995839 0.995418 0.994319 0.99243 0.993789 0.990617 0.991957 0.999888 0.995418 0.99977 0.996012 0.993572 0.990617 0.992798 0.989677 0.995418 0.994319 0.996012 0.995121 0.990617 0.991957 0.989677 0.991506 0.999593 0.995613 0.998319 0.991759 0.995839 0.994398 0.994319 0.990075 0.995613 0.995861 0.991759 0.990062 0.994398 0.993133 0.990075 0.986988 0.998319 0.991759 0.998082 0.992055 0.994319 0.990075 0.995121 0.992751 0.991759 0.990062 0.992055 0.991042 0.990075 0.986988 0.992751 0.988901 0.995839 0.994398 0.994319 0.990075 0.993789 0.994518 0.991957 0.991279 0.994398 0.993133 0.990075 0.986988 0.994518 0.99513 0.991279 0.991108 0.994319 0.990075 0.995121 0.992751 0.991957 0.991279 0.991506 0.990107 0.990075 0.986988 0.992751 0.988901 0.991279 0.991108 0.990107 0.993433 0.994494 0.99243 0.993572 0.990617 0.992744 0.992951 0.990022 0.989195 0.99243 0.993789 0.990617 0.991957 0.992951 0.994518 0.989195 0.991279 0.993572 0.990617 0.992798 0.989677 0.990022 0.989195 0.988927 0.988203 0.990617 0.991957 0.989677 0.991506 0.989195 0.991279 0.988203 0.990107 0.992744 0.992951 0.990022 0.989195 0.993112 0.994586 0.989154 0.989846 0.992951 0.994518 0.989195 0.991279 0.994586 0.99513 0.989846 0.991108 0.990022 0.989195 0.988927 0.988203 0.989154 0.989846 0.989807 0.98949 0.989195 0.991279 0.988203 0.990107 0.989846 0.991108 0.98949 0.993433 1.00029 0.999599 0.999482 0.9966 0.994652 0.996731 0.995285 0.994438 0.999599 0.999593 0.9966 0.995839 0.996731 0.995613 0.994438 0.994398 0.999482 0.9966 0.994494 0.99243 0.995285 0.994438 0.992744 0.992951 0.9966 0.995839 0.99243 0.993789 0.994438 0.994398 0.992951 0.994518 0.994652 0.996731 0.995285 0.994438 0.995555 1 0.994428 0.993136 0.996731 0.995613 0.994438 0.994398 1 0.995861 0.993136 0.993133 0.995285 0.994438 0.992744 0.992951 0.994428 0.993136 0.993112 0.994586 0.994438 0.994398 0.992951 0.994518 0.993136 0.993133 0.994586 0.99513 0.996734 0.99646 0.993763 0.993818 0.994968 0.996658 0.991681 0.994953 0.99646 0.995225 0.993818 0.994333 0.996658 0.993882 0.994953 0.993846 0.993763 0.993818 0.990326 0.994532 0.991681 0.994953 0.990044 0.994398 0.993818 0.994333 0.994532 0.995494 0.994953 0.993846 0.994398 0.995698 0.994968 0.996658 0.991681 0.994953 0.996881 0.997428 0.993423 0.995668 0.996658 0.993882 0.994953 0.993846 0.997428 0.99369 0.995668 0.992963 0.991681 0.994953 0.990044 0.994398 0.993423 0.995668 0.9903 0.995724 0.994953 0.993846 0.994398 0.995698 0.995668 0.992963 0.995724 0.994072 0.995225 0.99769 0.994333 1.00189 0.993882 0.995393 0.993846 0.999492 0.99769 0.99755 1.00189 1.00427 0.995393 0.99725 0.999492 1.00354 0.994333 1.00189 0.995494 1.0009 0.993846 0.999492 0.995698 0.997608 1.00189 1.00427 1.0009 1.00372 0.999492 1.00354 0.997608 1.00127 0.993882 0.995393 0.993846 0.999492 0.99369 0.991876 0.992963 0.991208 0.995393 0.99725 0.999492 1.00354 0.991876 0.991523 0.991208 0.992197 0.993846 0.999492 0.995698 0.997608 0.992963 0.991208 0.994072 0.99 0.999492 1.00354 0.997608 1.00127 0.991208 0.992197 0.99 0.991126 0.996881 0.997428 0.993423 0.995668 0.999863 0.997756 0.993776 0.992052 0.997428 0.99369 0.995668 0.992963 0.997756 0.991876 0.992052 0.991208 0.993423 0.995668 0.9903 0.995724 0.993776 0.992052 0.993195 0.992406 0.995668 0.992963 0.995724 0.994072 0.992052 0.991208 0.992406 0.99 0.999863 0.997756 0.993776 0.992052 0.999858 0.998128 0.994436 0.991919 0.997756 0.991876 0.992052 0.991208 0.998128 0.991523 0.991919 0.992197 0.993776 0.992052 0.993195 0.992406 0.994436 0.991919 0.992904 0.99136 0.992052 0.991208 0.992406 0.99 0.991919 0.992197 0.99136 0.991126 0.996734 0.99646 0.994968 0.996658 1.0015 0.999478 1.00068 1.00001 0.99646 0.995225 0.996658 0.993882 0.999478 0.99769 1.00001 0.995393 0.994968 0.996658 0.996881 0.997428 1.00068 1.00001 0.999863 0.997756 0.996658 0.993882 0.997428 0.99369 1.00001 0.995393 0.997756 0.991876 1.0015 0.999478 1.00068 1.00001 0.995555 1.0007 1.00563 1.00203 0.999478 0.99769 1.00001 0.995393 1.0007 0.99755 1.00203 0.99725 1.00068 1.00001 0.999863 0.997756 1.00563 1.00203 0.999858 0.998128 1.00001 0.995393 0.997756 0.991876 1.00203 0.99725 0.998128 0.991523 0.996734 0.994968 0.993763 0.991681 0.99312 0.991144 0.991269 0.988346 0.994968 0.996881 0.991681 0.993423 0.991144 0.993098 0.988346 0.990776 0.993763 0.991681 0.990326 0.990044 0.991269 0.988346 0.993644 0.991794 0.991681 0.993423 0.990044 0.9903 0.988346 0.990776 0.991794 0.990972 0.99312 0.991144 0.991269 0.988346 0.995055 0.993828 0.995707 0.993411 0.991144 0.993098 0.988346 0.990776 0.993828 0.993192 0.993411 0.992224 0.991269 0.988346 0.993644 0.991794 0.995707 0.993411 0.99551 0.993742 0.988346 0.990776 0.991794 0.990972 0.993411 0.992224 0.993742 0.992945 0.996881 0.999863 0.993423 0.993776 0.993098 0.995578 0.990776 0.993094 0.999863 0.999858 0.993776 0.994436 0.995578 0.995835 0.993094 0.991908 0.993423 0.993776 0.9903 0.993195 0.990776 0.993094 0.990972 0.993662 0.993776 0.994436 0.993195 0.992904 0.993094 0.991908 0.993662 0.99274 0.993098 0.995578 0.990776 0.993094 0.993192 0.993437 0.992224 0.992043 0.995578 0.995835 0.993094 0.991908 0.993437 0.992275 0.992043 0.992543 0.990776 0.993094 0.990972 0.993662 0.992224 0.992043 0.992945 0.991883 0.993094 0.991908 0.993662 0.99274 0.992043 0.992543 0.991883 0.991796 0.995055 0.993828 0.995707 0.993411 0.996274 0.995051 0.998091 0.996139 0.993828 0.993192 0.993411 0.992224 0.995051 0.993437 0.996139 0.992043 0.995707 0.993411 0.99551 0.993742 0.998091 0.996139 1.00017 0.995756 0.993411 0.992224 0.993742 0.992945 0.996139 0.992043 0.995756 0.991883 0.996274 0.995051 0.998091 0.996139 1.0005 0.99483 1.00222 0.996972 0.995051 0.993437 0.996139 0.992043 0.99483 0.992275 0.996972 0.992543 0.998091 0.996139 1.00017 0.995756 1.00222 0.996972 1.00426 0.99769 0.996139 0.992043 0.995756 0.991883 0.996972 0.992543 0.99769 0.991796 0.996734 0.994968 0.99312 0.991144 1.0015 1.00068 0.99544 0.995235 0.994968 0.996881 0.991144 0.993098 1.00068 0.999863 0.995235 0.995578 0.99312 0.991144 0.995055 0.993828 0.99544 0.995235 0.996274 0.995051 0.991144 0.993098 0.993828 0.993192 0.995235 0.995578 0.995051 0.993437 1.0015 1.00068 0.99544 0.995235 0.995555 1.00563 0.992608 0.99317 1.00068 0.999863 0.995235 0.995578 1.00563 0.999858 0.99317 0.995835 0.99544 0.995235 0.996274 0.995051 0.992608 0.99317 1.0005 0.99483 0.995235 0.995578 0.995051 0.993437 0.99317 0.995835 0.99483 0.992275 1.00008 0.999448 1.0037 1.0001 1.00156 0.99901 1.00261 0.998002 0.999448 0.994025 1.0001 0.993557 0.99901 0.995005 0.998002 0.993959 1.0037 1.0001 1.00424 0.999783 1.00261 0.998002 1.00134 0.997981 1.0001 0.993557 0.999783 0.993619 0.998002 0.993959 0.997981 0.995342 1.00156 0.99901 1.00261 0.998002 0.996438 0.99478 0.994532 0.992932 0.99901 0.995005 0.998002 0.993959 0.99478 0.993738 0.992932 0.992017 1.00261 0.998002 1.00134 0.997981 0.994532 0.992932 0.992264 0.992933 0.998002 0.993959 0.997981 0.995342 0.992932 0.992017 0.992933 0.992973 0.994025 0.993494 0.993557 0.991122 0.995005 0.995632 0.993959 0.991416 0.993494 0.993668 0.991122 0.989601 0.995632 0.996197 0.991416 0.991822 0.993557 0.991122 0.993619 0.992297 0.993959 0.991416 0.995342 0.990264 0.991122 0.989601 0.992297 0.98959 0.991416 0.991822 0.990264 0.992219 0.995005 0.995632 0.993959 0.991416 0.993738 0.994403 0.992017 0.991091 0.995632 0.996197 0.991416 0.991822 0.994403 0.995416 0.991091 0.992326 0.993959 0.991416 0.995342 0.990264 0.992017 0.991091 0.992973 0.992137 0.991416 0.991822 0.990264 0.992219 0.991091 0.992326 0.992137 0.989348 0.996438 0.99478 0.994532 0.992932 0.996466 0.994773 0.992797 0.990763 0.99478 0.993738 0.992932 0.992017 0.994773 0.994403 0.990763 0.991091 0.994532 0.992932 0.992264 0.992933 0.992797 0.990763 0.99516 0.992119 0.992932 0.992017 0.992933 0.992973 0.990763 0.991091 0.992119 0.992137 0.996466 0.994773 0.992797 0.990763 0.995861 0.997132 0.990062 0.992855 0.994773 0.994403 0.990763 0.991091 0.997132 0.995416 0.992855 0.992326 0.992797 0.990763 0.99516 0.992119 0.990062 0.992855 0.991042 0.992943 0.990763 0.991091 0.992119 0.992137 0.992855 0.992326 0.992943 0.989348 1.00008 0.999448 1.00156 0.99901 0.998261 0.995891 1.00068 0.998238 0.999448 0.994025 0.99901 0.995005 0.995891 0.993494 0.998238 0.995632 1.00156 0.99901 0.996438 0.99478 1.00068 0.998238 0.996466 0.994773 0.99901 0.995005 0.99478 0.993738 0.998238 0.995632 0.994773 0.994403 0.998261 0.995891 1.00068 0.998238 0.995555 0.998953 1 1.0014 0.995891 0.993494 0.998238 0.995632 0.998953 0.993668 1.0014 0.996197 1.00068 0.998238 0.996466 0.994773 1 1.0014 0.995861 0.997132 0.998238 0.995632 0.994773 0.994403 1.0014 0.996197 0.997132 0.995416 0.99755 0.998461 1.00427 1.00275 0.99725 0.994391 1.00354 1.00008 0.998461 0.996196 1.00275 0.996664 0.994391 0.990837 1.00008 0.991647 1.00427 1.00275 1.00372 1.00101 1.00354 1.00008 1.00127 0.996721 1.00275 0.996664 1.00101 0.995373 1.00008 0.991647 0.996721 0.990479 0.99725 0.994391 1.00354 1.00008 0.991523 0.990397 0.992197 0.990389 0.994391 0.990837 1.00008 0.991647 0.990397 0.991347 0.990389 0.990381 1.00354 1.00008 1.00127 0.996721 0.992197 0.990389 0.991126 0.98939 1.00008 0.991647 0.996721 0.990479 0.990389 0.990381 0.98939 0.991033 0.997847 1.00127 0.99304 0.994183 0.996905 0.997195 0.992808 0.992595 1.00127 0.999039 0.994183 0.994642 0.997195 0.998588 0.992595 0.995986 0.99304 0.994183 0.994495 0.99429 0.992808 0.992595 0.993278 0.99473 0.994183 0.994642 0.99429 0.99259 0.992595 0.995986 0.99473 0.997778 0.996905 0.997195 0.992808 0.992595 0.996196 0.990837 0.996664 0.991647 0.997195 0.998588 0.992595 0.995986 0.990837 0.991347 0.991647 0.990381 0.992808 0.992595 0.993278 0.99473 0.996664 0.991647 0.995373 0.990479 0.992595 0.995986 0.99473 0.997778 0.991647 0.990381 0.990479 0.991033 0.999858 0.998128 0.994436 0.991919 1.0016 0.999089 0.995389 0.993619 0.998128 0.991523 0.991919 0.992197 0.999089 0.990397 0.993619 0.990389 0.994436 0.991919 0.992904 0.99136 0.995389 0.993619 0.995088 0.993948 0.991919 0.992197 0.99136 0.991126 0.993619 0.990389 0.993948 0.98939 1.0016 0.999089 0.995389 0.993619 0.999039 0.998588 0.994642 0.995986 0.999089 0.990397 0.993619 0.990389 0.998588 0.991347 0.995986 0.990381 0.995389 0.993619 0.995088 0.993948 0.994642 0.995986 0.99259 0.997778 0.993619 0.990389 0.993948 0.98939 0.995986 0.990381 0.997778 0.991033 0.995555 1.0007 1.00563 1.00203 1.00521 0.999795 1.00728 1.00158 1.0007 0.99755 1.00203 0.99725 0.999795 0.998461 1.00158 0.994391 1.00563 1.00203 0.999858 0.998128 1.00728 1.00158 1.0016 0.999089 1.00203 0.99725 0.998128 0.991523 1.00158 0.994391 0.999089 0.990397 1.00521 0.999795 1.00728 1.00158 0.997847 0.996905 1.00127 0.997195 0.999795 0.998461 1.00158 0.994391 0.996905 0.996196 0.997195 0.990837 1.00728 1.00158 1.0016 0.999089 1.00127 0.997195 0.999039 0.998588 1.00158 0.994391 0.999089 0.990397 0.997195 0.990837 0.998588 0.991347 0.997415 0.993321 0.997974 0.993056 1.00139 1.00085 1.00238 0.999694 0.993321 0.992051 0.993056 0.990707 1.00085 0.996906 0.999694 0.995287 0.997