# vtk DataFile Version 3.0
#This file was generated by the deal.II library on 2025/4/16 at 17:54:38
ASCII
DATASET UNSTRUCTURED_GRID

POINTS 8192 double
-0.353378 2.58637e-05 -0.353829
-0.4618 -0.00168218 -0.298107
-0.52865 -0.0100761 -0.5291
-0.639182 -0.00990828 -0.423701
-0.414192 -0.117315 -0.299815
-0.507709 -0.105779 -0.258142
-0.591145 -0.16583 -0.43184
-0.676986 -0.144517 -0.355988
-0.4618 -0.00168218 -0.298107
-0.568826 2.17656e-05 -0.235907
-0.639182 -0.00990828 -0.423701
-0.743652 -0.00567964 -0.311662
-0.507709 -0.105779 -0.258142
-0.600283 -0.0913744 -0.212258
-0.676986 -0.144517 -0.355988
-0.759167 -0.120663 -0.276684
-0.52865 -0.0100761 -0.5291
-0.639182 -0.00990828 -0.423701
-0.706939 2.10324e-05 -0.707372
-0.821417 -0.00285494 -0.548301
-0.591145 -0.16583 -0.43184
-0.676986 -0.144517 -0.355988
-0.773693 -0.202657 -0.563533
-0.851556 -0.174045 -0.451519
-0.639182 -0.00990828 -0.423701
-0.743652 -0.00567964 -0.311662
-0.821417 -0.00285494 -0.548301
-0.923667 1.91012e-05 -0.382869
-0.676986 -0.144517 -0.355988
-0.759167 -0.120663 -0.276684
-0.851556 -0.174045 -0.451519
-0.922629 -0.142834 -0.337248
-0.414192 -0.117315 -0.299815
-0.507709 -0.105779 -0.258142
-0.591145 -0.16583 -0.43184
-0.676986 -0.144517 -0.355988
-0.47121 -0.235635 -0.235912
-0.550519 -0.211155 -0.211432
-0.645001 -0.320049 -0.320325
-0.708615 -0.279072 -0.279348
-0.507709 -0.105779 -0.258142
-0.600283 -0.0913744 -0.212258
-0.676986 -0.144517 -0.355988
-0.759167 -0.120663 -0.276684
-0.550519 -0.211155 -0.211432
-0.629192 -0.184233 -0.184456
-0.708615 -0.279072 -0.279348
-0.770167 -0.23657 -0.236793
-0.591145 -0.16583 -0.43184
-0.676986 -0.144517 -0.355988
-0.773693 -0.202657 -0.563533
-0.851556 -0.174045 -0.451519
-0.645001 -0.320049 -0.320325
-0.708615 -0.279072 -0.279348
-0.824846 -0.3995 -0.399758
-0.871425 -0.342752 -0.343009
-0.676986 -0.144517 -0.355988
-0.759167 -0.120663 -0.276684
-0.851556 -0.174045 -0.451519
-0.922629 -0.142834 -0.337248
-0.708615 -0.279072 -0.279348
-0.770167 -0.23657 -0.236793
-0.871425 -0.342752 -0.343009
-0.914677 -0.285383 -0.285588
-0.568826 2.17656e-05 -0.235907
-0.536647 -0.00242068 -0.115985
-0.743652 -0.00567964 -0.311662
-0.749128 -0.0104331 -0.159098
-0.600283 -0.0913744 -0.212258
-0.570168 -0.105874 -0.10603
-0.759167 -0.120663 -0.276684
-0.75736 -0.142362 -0.142518
-0.536647 -0.00242068 -0.115985
-0.499757 2.6264e-05 -5.59932e-05
-0.749128 -0.0104331 -0.159098
-0.745441 -0.00991502 -0.00999728
-0.570168 -0.105874 -0.10603
-0.536638 -0.115825 -0.00249917
-0.75736 -0.142362 -0.142518
-0.74912 -0.158938 -0.0105116
-0.743652 -0.00567964 -0.311662
-0.749128 -0.0104331 -0.159098
-0.923667 1.91012e-05 -0.382869
-0.969151 -0.00330772 -0.190756
-0.759167 -0.120663 -0.276684
-0.75736 -0.142362 -0.142518
-0.922629 -0.142834 -0.337248
-0.95099 -0.169889 -0.170027
-0.749128 -0.0104331 -0.159098
-0.745441 -0.00991502 -0.00999728
-0.969151 -0.00330772 -0.190756
-0.999727 2.74548e-05 -4.82227e-05
-0.75736 -0.142362 -0.142518
-0.74912 -0.158938 -0.0105116
-0.95099 -0.169889 -0.170027
-0.969129 -0.190612 -0.00337801
-0.600283 -0.0913744 -0.212258
-0.570168 -0.105874 -0.10603
-0.759167 -0.120663 -0.276684
-0.75736 -0.142362 -0.142518
-0.629192 -0.184233 -0.184456
-0.600255 -0.211994 -0.0915084
-0.770167 -0.23657 -0.236793
-0.75914 -0.27642 -0.120797
-0.570168 -0.105874 -0.10603
-0.536638 -0.115825 -0.00249917
-0.75736 -0.142362 -0.142518
-0.74912 -0.158938 -0.0105116
-0.600255 -0.211994 -0.0915084
-0.568793 -0.235633 -4.68126e-05
-0.75914 -0.27642 -0.120797
-0.74362 -0.311389 -0.00574822
-0.759167 -0.120663 -0.276684
-0.75736 -0.142362 -0.142518
-0.922629 -0.142834 -0.337248
-0.95099 -0.169889 -0.170027
-0.770167 -0.23657 -0.236793
-0.75914 -0.27642 -0.120797
-0.914677 -0.285383 -0.285588
-0.92259 -0.336999 -0.14295
-0.75736 -0.142362 -0.142518
-0.74912 -0.158938 -0.0105116
-0.95099 -0.169889 -0.170027
-0.969129 -0.190612 -0.00337801
-0.75914 -0.27642 -0.120797
-0.74362 -0.311389 -0.00574822
-0.92259 -0.336999 -0.14295
-0.923614 -0.382608 -4.03399e-05
-0.47121 -0.235635 -0.235912
-0.550519 -0.211155 -0.211432
-0.645001 -0.320049 -0.320325
-0.708615 -0.279072 -0.279348
-0.414164 -0.299433 -0.117476
-0.507681 -0.257761 -0.10594
-0.591117 -0.431458 -0.165992
-0.676958 -0.355607 -0.144678
-0.550519 -0.211155 -0.211432
-0.629192 -0.184233 -0.184456
-0.708615 -0.279072 -0.279348
-0.770167 -0.23657 -0.236793
-0.507681 -0.257761 -0.10594
-0.600255 -0.211994 -0.0915084
-0.676958 -0.355607 -0.144678
-0.75914 -0.27642 -0.120797
-0.645001 -0.320049 -0.320325
-0.708615 -0.279072 -0.279348
-0.824846 -0.3995 -0.399758
-0.871425 -0.342752 -0.343009
-0.591117 -0.431458 -0.165992
-0.676958 -0.355607 -0.144678
-0.773644 -0.563155 -0.202796
-0.851507 -0.45114 -0.174184
-0.708615 -0.279072 -0.279348
-0.770167 -0.23657 -0.236793
-0.871425 -0.342752 -0.343009
-0.914677 -0.285383 -0.285588
-0.676958 -0.355607 -0.144678
-0.75914 -0.27642 -0.120797
-0.851507 -0.45114 -0.174184
-0.92259 -0.336999 -0.14295
-0.414164 -0.299433 -0.117476
-0.507681 -0.257761 -0.10594
-0.591117 -0.431458 -0.165992
-0.676958 -0.355607 -0.144678
-0.353355 -0.353417 -5.36572e-05
-0.461777 -0.297695 -0.0017617
-0.528626 -0.528688 -0.0101556
-0.639159 -0.423289 -0.0099878
-0.507681 -0.257761 -0.10594
-0.600255 -0.211994 -0.0915084
-0.676958 -0.355607 -0.144678
-0.75914 -0.27642 -0.120797
-0.461777 -0.297695 -0.0017617
-0.568793 -0.235633 -4.68126e-05
-0.639159 -0.423289 -0.0099878
-0.74362 -0.311389 -0.00574822
-0.591117 -0.431458 -0.165992
-0.676958 -0.355607 -0.144678
-0.773644 -0.563155 -0.202796
-0.851507 -0.45114 -0.174184
-0.528626 -0.528688 -0.0101556
-0.639159 -0.423289 -0.0099878
-0.706886 -0.706953 -4.69625e-05
-0.821364 -0.547881 -0.00292293
-0.676958 -0.355607 -0.144678
-0.75914 -0.27642 -0.120797
-0.851507 -0.45114 -0.174184
-0.92259 -0.336999 -0.14295
-0.639159 -0.423289 -0.0099878
-0.74362 -0.311389 -0.00574822
-0.821364 -0.547881 -0.00292293
-0.923614 -0.382608 -4.03399e-05
-0.353378 2.58637e-05 -0.353829
-0.4618 -0.00168218 -0.298107
-0.414192 -0.117315 -0.299815
-0.507709 -0.105779 -0.258142
-0.173979 -0.0144679 -0.17434
-0.35354 -0.0141401 -0.152595
-0.294255 -0.154842 -0.15508
-0.43185 -0.134109 -0.134347
-0.4618 -0.00168218 -0.298107
-0.568826 2.17656e-05 -0.235907
-0.507709 -0.105779 -0.258142
-0.600283 -0.0913744 -0.212258
-0.35354 -0.0141401 -0.152595
-0.536647 -0.00242068 -0.115985
-0.43185 -0.134109 -0.134347
-0.570168 -0.105874 -0.10603
-0.414192 -0.117315 -0.299815
-0.507709 -0.105779 -0.258142
-0.47121 -0.235635 -0.235912
-0.550519 -0.211155 -0.211432
-0.294255 -0.154842 -0.15508
-0.43185 -0.134109 -0.134347
-0.414164 -0.299433 -0.117476
-0.507681 -0.257761 -0.10594
-0.507709 -0.105779 -0.258142
-0.600283 -0.0913744 -0.212258
-0.550519 -0.211155 -0.211432
-0.629192 -0.184233 -0.184456
-0.43185 -0.134109 -0.134347
-0.570168 -0.105874 -0.10603
-0.507681 -0.257761 -0.10594
-0.600255 -0.211994 -0.0915084
-0.173979 -0.0144679 -0.17434
-0.35354 -0.0141401 -0.152595
-0.294255 -0.154842 -0.15508
-0.43185 -0.134109 -0.134347
0.000119517 3.95107e-05 -8.51721e-05
-0.243676 -0.012588 -0.0127127
-0.174014 -0.174094 -0.0145851
-0.353575 -0.152349 -0.0142573
-0.35354 -0.0141401 -0.152595
-0.536647 -0.00242068 -0.115985
-0.43185 -0.134109 -0.134347
-0.570168 -0.105874 -0.10603
-0.243676 -0.012588 -0.0127127
-0.499757 2.6264e-05 -5.59932e-05
-0.353575 -0.152349 -0.0142573
-0.536638 -0.115825 -0.00249917
-0.294255 -0.154842 -0.15508
-0.43185 -0.134109 -0.134347
-0.414164 -0.299433 -0.117476
-0.507681 -0.257761 -0.10594
-0.174014 -0.174094 -0.0145851
-0.353575 -0.152349 -0.0142573
-0.353355 -0.353417 -5.36572e-05
-0.461777 -0.297695 -0.0017617
-0.43185 -0.134109 -0.134347
-0.570168 -0.105874 -0.10603
-0.507681 -0.257761 -0.10594
-0.600255 -0.211994 -0.0915084
-0.353575 -0.152349 -0.0142573
-0.536638 -0.115825 -0.00249917
-0.461777 -0.297695 -0.0017617
-0.568793 -0.235633 -4.68126e-05
0.35342 -1.07579e-05 0.35381
0.41105 0.11765 0.285575
0.537285 -0.0281886 0.537675
0.596629 0.137248 0.402613
0.45986 -0.00426189 0.291345
0.503448 0.102388 0.243277
0.641521 -0.0301267 0.418048
0.678125 0.118468 0.329429
0.41105 0.11765 0.285575
0.471247 0.23565 0.23589
0.596629 0.137248 0.402613
0.66089 0.312213 0.312425
0.503448 0.102388 0.243277
0.548421 0.208426 0.208664
0.678125 0.118468 0.329429
0.717456 0.269659 0.269882
0.537285 -0.0281886 0.537675
0.596629 0.137248 0.402613
0.706987 -7.06582e-06 0.707354
0.757684 0.193311 0.519937
0.641521 -0.0301267 0.418048
0.678125 0.118468 0.329429
0.807751 -0.0161545 0.544741
0.831462 0.161694 0.421985
0.596629 0.137248 0.402613
0.66089 0.312213 0.312425
0.757684 0.193311 0.519937
0.816365 0.408197 0.408367
0.678125 0.118468 0.329429
0.717456 0.269659 0.269882
0.831462 0.161694 0.421985
0.859774 0.346686 0.346874
0.45986 -0.00426189 0.291345
0.503448 0.102388 0.243277
0.641521 -0.0301267 0.418048
0.678125 0.118468 0.329429
0.568863 -1.05854e-05 0.235889
0.598325 0.0930846 0.20606
0.753734 -0.0138281 0.304371
0.766454 0.108329 0.259042
0.503448 0.102388 0.243277
0.548421 0.208426 0.208664
0.678125 0.118468 0.329429
0.717456 0.269659 0.269882
0.598325 0.0930846 0.20606
0.628374 0.185113 0.185299
0.766454 0.108329 0.259042
0.780686 0.229491 0.229676
0.641521 -0.0301267 0.418048
0.678125 0.118468 0.329429
0.807751 -0.0161545 0.544741
0.831462 0.161694 0.421985
0.753734 -0.0138281 0.304371
0.766454 0.108329 0.259042
0.923707 -9.07618e-06 0.382848
0.917351 0.143661 0.322932
0.678125 0.118468 0.329429
0.717456 0.269659 0.269882
0.831462 0.161694 0.421985
0.859774 0.346686 0.346874
0.766454 0.108329 0.259042
0.780686 0.229491 0.229676
0.917351 0.143661 0.322932
0.913777 0.286891 0.287051
0.471247 0.23565 0.23589
0.411011 0.285228 0.117775
0.66089 0.312213 0.312425
0.596592 0.402284 0.13736
0.548421 0.208426 0.208664
0.50341 0.242931 0.102511
0.717456 0.269659 0.269882
0.678088 0.329094 0.118585
0.411011 0.285228 0.117775
0.353382 0.353432 2.70571e-05
0.596592 0.402284 0.13736
0.537247 0.537297 -0.0281508
0.50341 0.242931 0.102511
[...]
POINT_DATA 8192
SCALARS D_0 double 1
LOOKUP_TABLE default
4.38978e-05 3.85262e-05 5.0878e-05 4.18498e-05 3.86651e-05 3.5888e-05 4.29128e-05 3.86005e-05 3.85262e-05 3.49325e-05 4.18498e-05 3.71986e-05 3.5888e-05 3.4171e-05 3.86005e-05 3.6351e-05 5.0878e-05 4.18498e-05 4.24529e-05 3.47242e-05 4.29128e-05 3.86005e-05 3.5342e-05 3.2805e-05 4.18498e-05 3.71986e-05 3.47242e-05 3.27563e-05 3.86005e-05 3.6351e-05 3.2805e-05 3.32529e-05 3.86651e-05 3.5888e-05 4.29128e-05 3.86005e-05 3.44115e-05 3.37591e-05 3.68544e-05 3.61861e-05 3.5888e-05 3.4171e-05 3.86005e-05 3.6351e-05 3.37591e-05 3.35625e-05 3.61861e-05 3.5637e-05 4.29128e-05 3.86005e-05 3.5342e-05 3.2805e-05 3.68544e-05 3.61861e-05 3.25126e-05 3.26956e-05 3.86005e-05 3.6351e-05 3.2805e-05 3.32529e-05 3.61861e-05 3.5637e-05 3.26956e-05 3.35409e-05 3.49325e-05 3.04739e-05 3.71986e-05 3.51093e-05 3.4171e-05 3.08237e-05 3.6351e-05 3.5032e-05 3.04739e-05 2.72503e-05 3.51093e-05 3.36503e-05 3.08237e-05 2.83921e-05 3.5032e-05 3.41584e-05 3.71986e-05 3.51093e-05 3.27563e-05 3.52989e-05 3.6351e-05 3.5032e-05 3.32529e-05 3.52277e-05 3.51093e-05 3.36503e-05 3.52989e-05 3.6905e-05 3.5032e-05 3.41584e-05 3.52277e-05 3.63235e-05 3.4171e-05 3.08237e-05 3.6351e-05 3.5032e-05 3.35625e-05 3.13225e-05 3.5637e-05 3.51572e-05 3.08237e-05 2.83921e-05 3.5032e-05 3.41584e-05 3.13225e-05 2.97474e-05 3.51572e-05 3.48632e-05 3.6351e-05 3.5032e-05 3.32529e-05 3.52277e-05 3.5637e-05 3.51572e-05 3.35409e-05 3.5301e-05 3.5032e-05 3.41584e-05 3.52277e-05 3.63235e-05 3.51572e-05 3.48632e-05 3.5301e-05 3.57859e-05 3.44115e-05 3.37591e-05 3.68544e-05 3.61861e-05 2.96467e-05 3.02529e-05 3.45162e-05 3.4746e-05 3.37591e-05 3.35625e-05 3.61861e-05 3.5637e-05 3.02529e-05 3.13225e-05 3.4746e-05 3.51572e-05 3.68544e-05 3.61861e-05 3.25126e-05 3.26956e-05 3.45162e-05 3.4746e-05 3.40812e-05 3.45322e-05 3.61861e-05 3.5637e-05 3.26956e-05 3.35409e-05 3.4746e-05 3.51572e-05 3.45322e-05 3.5301e-05 2.96467e-05 3.02529e-05 3.45162e-05 3.4746e-05 2.70919e-05 2.82844e-05 3.34414e-05 3.37497e-05 3.02529e-05 3.13225e-05 3.4746e-05 3.51572e-05 2.82844e-05 2.97474e-05 3.37497e-05 3.48632e-05 3.45162e-05 3.4746e-05 3.40812e-05 3.45322e-05 3.34414e-05 3.37497e-05 3.68557e-05 3.58431e-05 3.4746e-05 3.51572e-05 3.45322e-05 3.5301e-05 3.37497e-05 3.48632e-05 3.58431e-05 3.57859e-05 4.38978e-05 3.85262e-05 3.86651e-05 3.5888e-05 2.53577e-05 2.73013e-05 2.67606e-05 2.86717e-05 3.85262e-05 3.49325e-05 3.5888e-05 3.4171e-05 2.73013e-05 3.04739e-05 2.86717e-05 3.08237e-05 3.86651e-05 3.5888e-05 3.44115e-05 3.37591e-05 2.67606e-05 2.86717e-05 2.96467e-05 3.02529e-05 3.5888e-05 3.4171e-05 3.37591e-05 3.35625e-05 2.86717e-05 3.08237e-05 3.02529e-05 3.13225e-05 2.53577e-05 2.73013e-05 2.67606e-05 2.86717e-05 2.33465e-06 1.54332e-05 1.55878e-05 2.21108e-05 2.73013e-05 3.04739e-05 2.86717e-05 3.08237e-05 1.54332e-05 2.72503e-05 2.21108e-05 2.83921e-05 2.67606e-05 2.86717e-05 2.96467e-05 3.02529e-05 1.55878e-05 2.21108e-05 2.70919e-05 2.82844e-05 2.86717e-05 3.08237e-05 3.02529e-05 3.13225e-05 2.21108e-05 2.83921e-05 2.82844e-05 2.97474e-05 4.04333e-05 3.3759e-05 4.68619e-05 3.71581e-05 3.42974e-05 3.09818e-05 3.70273e-05 3.31321e-05 3.3759e-05 2.98557e-05 3.71581e-05 3.07606e-05 3.09818e-05 2.90612e-05 3.31321e-05 3.05509e-05 4.68619e-05 3.71581e-05 3.97044e-05 2.98288e-05 3.70273e-05 3.31321e-05 3.05085e-05 2.73228e-05 3.71581e-05 3.07606e-05 2.98288e-05 2.54662e-05 3.31321e-05 3.05509e-05 2.73228e-05 2.6819e-05 3.42974e-05 3.09818e-05 3.70273e-05 3.31321e-05 3.07206e-05 2.96439e-05 3.1988e-05 3.10643e-05 3.09818e-05 2.90612e-05 3.31321e-05 3.05509e-05 2.96439e-05 2.90713e-05 3.10643e-05 3.04983e-05 3.70273e-05 3.31321e-05 3.05085e-05 2.73228e-05 3.1988e-05 3.10643e-05 2.69441e-05 2.78666e-05 3.31321e-05 3.05509e-05 2.73228e-05 2.6819e-05 3.10643e-05 3.04983e-05 2.78666e-05 2.79588e-05 2.98557e-05 2.50924e-05 3.07606e-05 2.89739e-05 2.90612e-05 2.58848e-05 3.05509e-05 2.99458e-05 2.50924e-05 2.37423e-05 2.89739e-05 2.99629e-05 2.58848e-05 2.47517e-05 2.99458e-05 3.0724e-05 3.07606e-05 2.89739e-05 2.54662e-05 2.86507e-05 3.05509e-05 2.99458e-05 2.6819e-05 3.02129e-05 2.89739e-05 2.99629e-05 2.86507e-05 3.23798e-05 2.99458e-05 3.0724e-05 3.02129e-05 3.24686e-05 2.90612e-05 2.58848e-05 3.05509e-05 2.99458e-05 2.90713e-05 2.7421e-05 3.04983e-05 3.11373e-05 2.58848e-05 2.47517e-05 2.99458e-05 3.0724e-05 2.7421e-05 2.66236e-05 3.11373e-05 3.21543e-05 3.05509e-05 2.99458e-05 2.6819e-05 3.02129e-05 3.04983e-05 3.11373e-05 2.79588e-05 3.11445e-05 2.99458e-05 3.0724e-05 3.02129e-05 3.24686e-05 3.11373e-05 3.21543e-05 3.11445e-05 3.34928e-05 3.07206e-05 2.96439e-05 3.1988e-05 3.10643e-05 2.66794e-05 2.67442e-05 3.06561e-05 3.05155e-05 2.96439e-05 2.90713e-05 3.10643e-05 3.04983e-05 2.67442e-05 2.7421e-05 3.05155e-05 3.11373e-05 3.1988e-05 3.10643e-05 2.69441e-05 2.78666e-05 3.06561e-05 3.05155e-05 3.05093e-05 3.09596e-05 3.10643e-05 3.04983e-05 2.78666e-05 2.79588e-05 3.05155e-05 3.11373e-05 3.09596e-05 3.11445e-05 2.66794e-05 2.67442e-05 3.06561e-05 3.05155e-05 2.40215e-05 2.51422e-05 3.06761e-05 3.13556e-05 2.67442e-05 2.7421e-05 3.05155e-05 3.11373e-05 2.51422e-05 2.66236e-05 3.13556e-05 3.21543e-05 3.06561e-05 3.05155e-05 3.05093e-05 3.09596e-05 3.06761e-05 3.13556e-05 3.31625e-05 3.34275e-05 3.05155e-05 3.11373e-05 3.09596e-05 3.11445e-05 3.13556e-05 3.21543e-05 3.34275e-05 3.34928e-05 4.04333e-05 3.3759e-05 3.42974e-05 3.09818e-05 2.30954e-05 2.09912e-05 2.29667e-05 2.34735e-05 3.3759e-05 2.98557e-05 3.09818e-05 2.90612e-05 2.09912e-05 2.50924e-05 2.34735e-05 2.58848e-05 3.42974e-05 3.09818e-05 3.07206e-05 2.96439e-05 2.29667e-05 2.34735e-05 2.66794e-05 2.67442e-05 3.09818e-05 2.90612e-05 2.96439e-05 2.90713e-05 2.34735e-05 2.58848e-05 2.67442e-05 2.7421e-05 2.30954e-05 2.09912e-05 2.29667e-05 2.34735e-05 2.33465e-06 1.3018e-05 1.25944e-05 1.89153e-05 2.09912e-05 2.50924e-05 2.34735e-05 2.58848e-05 1.3018e-05 2.37423e-05 1.89153e-05 2.47517e-05 2.29667e-05 2.34735e-05 2.66794e-05 2.67442e-05 1.25944e-05 1.89153e-05 2.40215e-05 2.51422e-05 2.34735e-05 2.58848e-05 2.67442e-05 2.7421e-05 1.89153e-05 2.47517e-05 2.51422e-05 2.66236e-05 5.43761e-05 5.62947e-05 6.73121e-05 6.5928e-05 5.64734e-05 5.8047e-05 6.56614e-05 6.47265e-05 5.62947e-05 5.70684e-05 6.5928e-05 6.1764e-05 5.8047e-05 5.83736e-05 6.47265e-05 6.21364e-05 6.73121e-05 6.5928e-05 6.77034e-05 6.65838e-05 6.56614e-05 6.47265e-05 6.62862e-05 6.55003e-05 6.5928e-05 6.1764e-05 6.65838e-05 6.13133e-05 6.47265e-05 6.21364e-05 6.55003e-05 6.01869e-05 5.64734e-05 5.8047e-05 6.56614e-05 6.47265e-05 5.66941e-05 5.82502e-05 6.1597e-05 6.23769e-05 5.8047e-05 5.83736e-05 6.47265e-05 6.21364e-05 5.82502e-05 5.85539e-05 6.23769e-05 6.09073e-05 6.56614e-05 6.47265e-05 6.62862e-05 6.55003e-05 6.1597e-05 6.23769e-05 6.02957e-05 6.0478e-05 6.47265e-05 6.21364e-05 6.55003e-05 6.01869e-05 6.23769e-05 6.09073e-05 6.0478e-05 5.89111e-05 5.70684e-05 4.97427e-05 6.1764e-05 5.5602e-05 5.83736e-05 5.23979e-05 6.21364e-05 5.73242e-05 4.97427e-05 4.12868e-05 5.5602e-05 4.74917e-05 5.23979e-05 4.52162e-05 5.73242e-05 5.12506e-05 6.1764e-05 5.5602e-05 6.13133e-05 5.05817e-05 6.21364e-05 5.73242e-05 6.01869e-05 5.32572e-05 5.5602e-05 4.74917e-05 5.05817e-05 4.0648e-05 5.73242e-05 5.12506e-05 5.32572e-05 4.53447e-05 5.83736e-05 5.23979e-05 6.21364e-05 5.73242e-05 5.85539e-05 5.40389e-05 6.09073e-05 5.71487e-05 5.23979e-05 4.52162e-05 5.73242e-05 5.12506e-05 5.40389e-05 4.87605e-05 5.71487e-05 5.30524e-05 6.21364e-05 5.73242e-05 6.01869e-05 5.32572e-05 6.09073e-05 5.71487e-05 5.89111e-05 5.38709e-05 5.73242e-05 5.12506e-05 5.32572e-05 4.53447e-05 5.71487e-05 5.30524e-05 5.38709e-05 4.7386e-05 5.66941e-05 5.82502e-05 6.1597e-05 6.23769e-05 4.8874e-05 5.17452e-05 5.53882e-05 5.74518e-05 5.82502e-05 5.85539e-05 6.23769e-05 6.09073e-05 5.17452e-05 5.40389e-05 5.74518e-05 5.71487e-05 6.1597e-05 6.23769e-05 6.02957e-05 6.0478e-05 5.53882e-05 5.74518e-05 5.07442e-05 5.33516e-05 6.23769e-05 6.09073e-05 6.0478e-05 5.89111e-05 5.74518e-05 5.71487e-05 5.33516e-05 5.38709e-05 4.8874e-05 5.17452e-05 5.53882e-05 5.74518e-05 4.02427e-05 4.41259e-05 4.66452e-05 5.06522e-05 5.17452e-05 5.40389e-05 5.74518e-05 5.71487e-05 4.41259e-05 4.87605e-05 5.06522e-05 5.30524e-05 5.53882e-05 5.74518e-05 5.07442e-05 5.33516e-05 4.66452e-05 5.06522e-05 3.92711e-05 4.43775e-05 5.74518e-05 5.71487e-05 5.33516e-05 5.38709e-05 5.06522e-05 5.30524e-05 4.43775e-05 4.7386e-05 5.43761e-05 5.62947e-05 5.64734e-05 5.8047e-05 3.06248e-05 4.08955e-05 4.10853e-05 4.71335e-05 5.62947e-05 5.70684e-05 5.8047e-05 5.83736e-05 4.08955e-05 4.97427e-05 4.71335e-05 5.23979e-05 5.64734e-05 5.8047e-05 5.66941e-05 5.82502e-05 4.10853e-05 4.71335e-05 4.8874e-05 5.17452e-05 5.8047e-05 5.83736e-05 5.82502e-05 5.85539e-05 4.71335e-05 5.23979e-05 5.17452e-05 5.40389e-05 3.06248e-05 4.08955e-05 4.10853e-05 4.71335e-05 2.33465e-06 2.25971e-05 2.32077e-05 3.41852e-05 4.08955e-05 4.97427e-05 4.71335e-05 5.23979e-05 2.25971e-05 4.12868e-05 3.41852e-05 4.52162e-05 4.10853e-05 4.71335e-05 4.8874e-05 5.17452e-05 2.32077e-05 3.41852e-05 4.02427e-05 4.41259e-05 4.71335e-05 5.23979e-05 5.17452e-05 5.40389e-05 3.41852e-05 4.52162e-05 4.41259e-05 4.87605e-05 5.8162e-05 6.04962e-05 7.32037e-05 7.11635e-05 6.03833e-05 6.22779e-05 7.11051e-05 7.02706e-05 6.04962e-05 6.05883e-05 7.11635e-05 6.59124e-05 6.22779e-05 6.24373e-05 7.02706e-05 6.65526e-05 7.32037e-05 7.11635e-05 7.43482e-05 7.31548e-05 7.11051e-05 7.02706e-05 7.15666e-05 7.06782e-05 7.11635e-05 6.59124e-05 7.31548e-05 6.47554e-05 7.02706e-05 6.65526e-05 7.06782e-05 6.52831e-05 6.03833e-05 6.22779e-05 7.11051e-05 7.02706e-05 6.03002e-05 6.22759e-05 6.60698e-05 6.72121e-05 6.22779e-05 6.24373e-05 7.02706e-05 6.65526e-05 6.22759e-05 6.26871e-05 6.72121e-05 6.57669e-05 7.11051e-05 7.02706e-05 7.15666e-05 7.06782e-05 6.60698e-05 6.72121e-05 6.45382e-05 6.63817e-05 7.02706e-05 6.65526e-05 7.06782e-05 6.52831e-05 6.72121e-05 6.57669e-05 6.63817e-05 6.29422e-05 6.05883e-05 5.23906e-05 6.59124e-05 5.90468e-05 6.24373e-05 5.57405e-05 6.65526e-05 6.15527e-05 5.23906e-05 4.3176e-05 5.90468e-05 5.04533e-05 5.57405e-05 4.80391e-05 6.15527e-05 5.5123e-05 6.59124e-05 5.90468e-05 6.47554e-05 5.34154e-05 6.65526e-05 6.15527e-05 6.52831e-05 5.73525e-05 5.90468e-05 5.04533e-05 5.34154e-05 4.33026e-05 6.15527e-05 5.5123e-05 5.73525e-05 4.90089e-05 6.24373e-05 5.57405e-05 6.65526e-05 6.15527e-05 6.26871e-05 5.74873e-05 6.57669e-05 6.1977e-05 5.57405e-05 4.80391e-05 6.15527e-05 5.5123e-05 5.74873e-05 5.15096e-05 6.1977e-05 5.75405e-05 6.65526e-05 6.15527e-05 6.52831e-05 5.73525e-05 6.57669e-05 6.1977e-05 6.29422e-05 5.84966e-05 6.15527e-05 5.5123e-05 5.73525e-05 4.90089e-05 6.1977e-05 5.75405e-05 5.84966e-05 5.18747e-05 6.03002e-05 6.22759e-05 6.60698e-05 6.72121e-05 5.19163e-05 5.53999e-05 5.88489e-05 6.22402e-05 6.22759e-05 6.26871e-05 6.72121e-05 6.57669e-05 5.53999e-05 5.74873e-05 6.22402e-05 6.1977e-05 6.60698e-05 6.72121e-05 6.45382e-05 6.63817e-05 5.88489e-05 6.22402e-05 5.3857e-05 5.87733e-05 6.72121e-05 6.57669e-05 6.63817e-05 6.29422e-05 6.22402e-05 6.1977e-05 5.87733e-05 5.84966e-05 5.19163e-05 5.53999e-05 5.88489e-05 6.22402e-05 4.25788e-05 4.75859e-05 5.07569e-05 5.56597e-05 5.53999e-05 5.74873e-05 6.22402e-05 6.1977e-05 4.75859e-05 5.15096e-05 5.56597e-05 5.75405e-05 5.88489e-05 6.22402e-05 5.3857e-05 5.87733e-05 5.07569e-05 5.56597e-05 4.22986e-05 5.05487e-05 6.22402e-05 6.1977e-05 5.87733e-05 5.84966e-05 5.56597e-05 5.75405e-05 5.05487e-05 5.18747e-05 5.8162e-05 6.04962e-05 6.03833e-05 6.22779e-05 3.16046e-05 4.33954e-05 4.35527e-05 5.07193e-05 6.04962e-05 6.05883e-05 6.22779e-05 6.24373e-05 4.33954e-05 5.23906e-05 5.07193e-05 5.57405e-05 6.03833e-05 6.22779e-05 6.03002e-05 6.22759e-05 4.35527e-05 5.07193e-05 5.19163e-05 5.53999e-05 6.22779e-05 6.24373e-05 6.22759e-05 6.26871e-05 5.07193e-05 5.57405e-05 5.53999e-05 5.74873e-05 3.16046e-05 4.33954e-05 4.35527e-05 5.07193e-05 2.33465e-06 2.46148e-05 2.50145e-05 3.7446e-05 4.33954e-05 5.23906e-05 5.07193e-05 5.57405e-05 2.46148e-05 4.3176e-05 3.7446e-05 4.80391e-05 4.35527e-05 5.07193e-05 5.19163e-05 5.53999e-05 2.50145e-05 3.7446e-05 4.25788e-05 4.75859e-05 5.07193e-05 5.57405e-05 5.53999e-05 5.74873e-05 3.7446e-05 4.80391e-05 4.75859e-05 5.15096e-05 4.13827e-05 3.58002e-05 4.75347e-05 3.99238e-05 3.62262e-05 3.33833e-05 3.9288e-05 3.61905e-05 3.58002e-05 3.18521e-05 3.99238e-05 3.42172e-05 3.33833e-05 3.13736e-05 3.61905e-05 3.3736e-05 4.75347e-05 3.99238e-05 4.12022e-05 3.31723e-05 3.9288e-05 3.61905e-05 3.32239e-05 3.08742e-05 3.99238e-05 3.42172e-05 3.31723e-05 2.94221e-05 3.61905e-05 3.3736e-05 3.08742e-05 3.01686e-05 3.62262e-05 3.33833e-05 3.9288e-05 3.61905e-05 3.29761e-05 3.21157e-05 3.50587e-05 3.43988e-05 3.33833e-05 3.13736e-05 3.61905e-05 3.3736e-05 3.21157e-05 3.15393e-05 3.43988e-05 3.35654e-05 3.9288e-05 3.61905e-05 3.32239e-05 3.08742e-05 3.50587e-05 3.43988e-05 3.08747e-05 3.14716e-05 3.61905e-05 3.3736e-05 3.08742e-05 3.01686e-05 3.43988e-05 3.35654e-05 3.14716e-05 3.14316e-05 3.18521e-05 2.65841e-05 3.42172e-05 3.1185e-05 3.13736e-05 2.75017e-05 3.3736e-05 3.20922e-05 2.65841e-05 2.45129e-05 3.1185e-05 3.05975e-05 2.75017e-05 2.57335e-05 3.20922e-05 3.13831e-05 3.42172e-05 3.1185e-05 2.94221e-05 3.10402e-05 3.3736e-05 3.20922e-05 3.01686e-05 3.23612e-05 3.1185e-05 3.05975e-05 3.10402e-05 3.34987e-05 3.20922e-05 3.13831e-05 3.23612e-05 3.366e-05 3.13736e-05 2.75017e-05 3.3736e-05 3.20922e-05 3.15393e-05 2.92554e-05 3.35654e-05 3.34491e-05 2.75017e-05 2.57335e-05 3.20922e-05 3.13831e-05 2.92554e-05 2.78124e-05 3.34491e-05 3.30981e-05 3.3736e-05 3.20922e-05 3.01686e-05 3.23612e-05 3.35654e-05 3.34491e-05 3.14316e-05 3.33155e-05 3.20922e-05 3.13831e-05 3.23612e-05 3.366e-05 3.34491e-05 3.30981e-05 3.33155e-05 3.48011e-05 3.29761e-05 3.21157e-05 3.50587e-05 3.43988e-05 2.88019e-05 2.8898e-05 3.33591e-05 3.32369e-05 3.21157e-05 3.15393e-05 3.43988e-05 3.35654e-05 2.8898e-05 2.92554e-05 3.32369e-05 3.34491e-05 3.50587e-05 3.43988e-05 3.08747e-05 3.14716e-05 3.33591e-05 3.32369e-05 3.3467e-05 3.43514e-05 3.43988e-05 3.35654e-05 3.14716e-05 3.14316e-05 3.32369e-05 3.34491e-05 3.43514e-05 3.33155e-05 2.88019e-05 2.8898e-05 3.33591e-05 3.32369e-05 2.59169e-05 2.66991e-05 3.22057e-05 3.28242e-05 2.8898e-05 2.92554e-05 3.32369e-05 3.34491e-05 2.66991e-05 2.78124e-05 3.28242e-05 3.30981e-05 3.33591e-05 3.32369e-05 3.3467e-05 3.43514e-05 3.22057e-05 3.28242e-05 3.54618e-05 3.53276e-05 3.32369e-05 3.34491e-05 3.43514e-05 3.33155e-05 3.28242e-05 3.30981e-05 3.53276e-05 3.48011e-05 4.13827e-05 3.58002e-05 3.62262e-05 3.33833e-05 2.23903e-05 2.27265e-05 2.43544e-05 2.55202e-05 3.58002e-05 3.18521e-05 3.33833e-05 3.13736e-05 2.27265e-05 2.65841e-05 2.55202e-05 2.75017e-05 3.62262e-05 3.33833e-05 3.29761e-05 3.21157e-05 2.43544e-05 2.55202e-05 2.88019e-05 2.8898e-05 3.33833e-05 3.13736e-05 3.21157e-05 3.15393e-05 2.55202e-05 2.75017e-05 2.8898e-05 2.92554e-05 2.23903e-05 2.27265e-05 2.43544e-05 2.55202e-05 2.33465e-06 1.29666e-05 1.41901e-05 1.9895e-05 2.27265e-05 2.65841e-05 2.55202e-05 2.75017e-05 1.29666e-05 2.45129e-05 1.9895e-05 2.57335e-05 2.43544e-05 2.55202e-05 2.88019e-05 2.8898e-05 1.41901e-05 1.9895e-05 2.59169e-05 2.66991e-05 2.55202e-05 2.75017e-05 2.8898e-05 2.92554e-05 1.9895e-05 2.57335e-05 2.66991e-05 2.78124e-05 2.60952e-05 2.87899e-05 3.15584e-05 3.30145e-05 2.69396e-05 2.92336e-05 3.2008e-05 3.34396e-05 2.87899e-05 3.39069e-05 3.30145e-05 3.67005e-05 2.92336e-05 3.31665e-05 3.34396e-05 3.55088e-05 3.15584e-05 3.30145e-05 3.36656e-05 3.27024e-05 3.2008e-05 3.34396e-05 3.36563e-05 3.31218e-05 3.30145e-05 3.67005e-05 3.27024e-05 3.13522e-05 3.34396e-05 3.55088e-05 3.31218e-05 3.15735e-05 2.69396e-05 2.92336e-05 3.2008e-05 3.34396e-05 2.83685e-05 3.01182e-05 3.36278e-05 3.37941e-05 2.92336e-05 3.31665e-05 3.34396e-05 3.55088e-05 3.01182e-05 3.27382e-05 3.37941e-05 3.47163e-05 3.2008e-05 3.34396e-05 3.36563e-05 3.31218e-05 3.36278e-05 3.37941e-05 3.40525e-05 3.4003e-05 3.34396e-05 3.55088e-05 3.31218e-05 3.15735e-05 3.37941e-05 3.47163e-05 3.4003e-05 3.20244e-05 3.39069e-05 3.83808e-05 3.67005e-05 4.39778e-05 3.31665e-05 3.53731e-05 3.55088e-05 3.88282e-05 3.83808e-05 4.361e-05 4.39778e-05 5.19607e-05 3.53731e-05 3.79952e-05 3.88282e-05 4.21303e-05 3.67005e-05 4.39778e-05 3.13522e-05 3.64801e-05 3.55088e-05 3.88282e-05 3.15735e-05 3.26727e-05 4.39778e-05 5.19607e-05 3.64801e-05 4.40634e-05 3.88282e-05 4.21303e-05 3.26727e-05 3.51357e-05 3.31665e-05 3.53731e-05 3.55088e-05 3.88282e-05 3.27382e-05 3.3443e-05 3.47163e-05 3.60976e-05 3.53731e-05 3.79952e-05 3.88282e-05 4.21303e-05 3.3443e-05 3.41278e-05 3.60976e-05 3.69306e-05 3.55088e-05 3.88282e-05 3.15735e-05 3.26727e-05 3.47163e-05 3.60976e-05 3.20244e-05 3.23635e-05 3.88282e-05 4.21303e-05 3.26727e-05 3.51357e-05 3.60976e-05 3.69306e-05 3.23635e-05 3.25216e-05 2.83685e-05 3.01182e-05 3.36278e-05 3.37941e-05 2.6678e-05 2.95454e-05 3.26617e-05 3.39789e-05 3.01182e-05 3.27382e-05 3.37941e-05 3.47163e-05 2.95454e-05 3.3443e-05 3.39789e-05 3.60976e-05 3.36278e-05 3.37941e-05 3.40525e-05 3.4003e-05 3.26617e-05 3.39789e-05 3.49252e-05 3.42432e-05 3.37941e-05 3.47163e-05 3.4003e-05 3.20244e-05 3.39789e-05 3.60976e-05 3.42432e-05 3.23635e-05 2.6678e-05 2.95454e-05 3.26617e-05 3.39789e-05 2.52017e-05 2.89992e-05 3.19372e-05 3.4232e-05 2.95454e-05 3.3443e-05 3.39789e-05 3.60976e-05 2.89992e-05 3.41278e-05 3.4232e-05 3.69306e-05 3.26617e-05 3.39789e-05 3.49252e-05 3.42432e-05 3.19372e-05 3.4232e-05 3.45223e-05 3.44483e-05 3.39789e-05 3.60976e-05 3.42432e-05 3.23635e-05 3.4232e-05 3.69306e-05 3.44483e-05 3.25216e-05 2.60952e-05 2.87899e-05 2.69396e-05 2.92336e-05 1.49439e-05 2.63714e-05 2.07864e-05 2.78067e-05 2.87899e-05 3.39069e-05 2.92336e-05 3.31665e-05 2.63714e-05 3.83808e-05 2.78067e-05 3.53731e-05 2.69396e-05 2.92336e-05 2.83685e-05 3.01182e-05 2.07864e-05 2.78067e-05 2.6678e-05 2.95454e-05 2.92336e-05 3.31665e-05 3.01182e-05 3.27382e-05 2.78067e-05 3.53731e-05 2.95454e-05 3.3443e-05 1.49439e-05 2.63714e-05 2.07864e-05 2.78067e-05 2.33465e-06 2.5874e-05 1.41097e-05 2.66386e-05 2.63714e-05 3.83808e-05 2.78067e-05 3.53731e-05 2.5874e-05 4.361e-05 2.66386e-05 3.79952e-05 2.07864e-05 2.78067e-05 2.6678e-05 2.95454e-05 1.41097e-05 2.66386e-05 2.52017e-05 2.89992e-05 2.78067e-05 3.53731e-05 2.95454e-05 3.3443e-05 2.66386e-05 3.79952e-05 2.89992e-05 3.41278e-05 2.60952e-05 2.69396e-05 3.15584e-05 3.2008e-05 2.75444e-05 2.82205e-05 3.1904e-05 3.25397e-05 2.69396e-05 2.83685e-05 3.2008e-05 3.36278e-05 2.82205e-05 2.93546e-05 3.25397e-05 3.33839e-05 3.15584e-05 3.2008e-05 3.36656e-05 3.36563e-05 3.1904e-05 3.25397e-05 3.34519e-05 3.38521e-05 3.2008e-05 3.36278e-05 3.36563e-05 3.40525e-05 3.25397e-05 3.33839e-05 3.38521e-05 3.43076e-05 2.75444e-05 2.82205e-05 3.1904e-05 3.25397e-05 3.15038e-05 3.09401e-05 3.43011e-05 3.39612e-05 2.82205e-05 2.93546e-05 3.25397e-05 3.33839e-05 3.09401e-05 3.111e-05 3.39612e-05 3.35272e-05 3.1904e-05 3.25397e-05 3.34519e-05 3.38521e-05 3.43011e-05 3.39612e-05 3.0552e-05 3.10243e-05 3.25397e-05 3.33839e-05 3.38521e-05 3.43076e-05 3.39612e-05 3.35272e-05 3.10243e-05 3.15602e-05 2.83685e-05 2.6678e-05 3.36278e-05 3.26617e-05 2.93546e-05 2.81027e-05 3.33839e-05 3.25982e-05 2.6678e-05 2.52017e-05 3.26617e-05 3.19372e-05 2.81027e-05 2.74919e-05 3.25982e-05 3.22903e-05 3.36278e-05 3.26617e-05 3.40525e-05 3.49252e-05 3.33839e-05 3.25982e-05 3.43076e-05 3.37664e-05 3.26617e-05 3.19372e-05 3.49252e-05 3.45223e-05 3.25982e-05 3.22903e-05 3.37664e-05 3.30643e-05 2.93546e-05 2.81027e-05 3.33839e-05 3.25982e-05 3.111e-05 3.08834e-05 3.35272e-05 3.35136e-05 2.81027e-05 2.74919e-05 3.25982e-05 3.22903e-05 3.08834e-05 3.11801e-05 3.35136e-05 3.34044e-05 3.33839e-05 3.25982e-05 3.43076e-05 3.37664e-05 3.35272e-05 3.35136e-05 3.15602e-05 3.10262e-05 3.25982e-05 3.22903e-05 3.37664e-05 3.30643e-05 3.35136e-05 3.34044e-05 3.10262e-05 2.96405e-05 3.15038e-05 3.09401e-05 3.43011e-05 3.39612e-05 3.48066e-05 3.19531e-05 3.96289e-05 3.52692e-05 3.09401e-05 3.111e-05 3.39612e-05 3.35272e-05 3.19531e-05 3.08834e-05 3.52692e-05 3.35136e-05