# vtk DataFile Version 3.0
#This file was generated by the deal.II library on 2025/4/17 at 14:12:24
ASCII
DATASET UNSTRUCTURED_GRID

POINTS 8192 double
-0.353146 6.20341e-05 -0.354197
-0.461568 -0.00164601 -0.298476
-0.528417 -0.0100399 -0.529469
-0.63895 -0.00987211 -0.42407
-0.41396 -0.117279 -0.300183
-0.507477 -0.105743 -0.258511
-0.590913 -0.165794 -0.432208
-0.676754 -0.14448 -0.356356
-0.461568 -0.00164601 -0.298476
-0.568547 5.25152e-05 -0.236181
-0.63895 -0.00987211 -0.42407
-0.743374 -0.00564889 -0.311937
-0.507477 -0.105743 -0.258511
-0.600004 -0.0913437 -0.212532
-0.676754 -0.14448 -0.356356
-0.758888 -0.120632 -0.276958
-0.528417 -0.0100399 -0.529469
-0.63895 -0.00987211 -0.42407
-0.706717 5.08996e-05 -0.707727
-0.821196 -0.00282507 -0.548656
-0.590913 -0.165794 -0.432208
-0.676754 -0.14448 -0.356356
-0.773471 -0.202627 -0.563888
-0.851335 -0.174015 -0.451874
-0.63895 -0.00987211 -0.42407
-0.743374 -0.00564889 -0.311937
-0.821196 -0.00282507 -0.548656
-0.923385 4.63477e-05 -0.383119
-0.676754 -0.14448 -0.356356
-0.758888 -0.120632 -0.276958
-0.851335 -0.174015 -0.451874
-0.922347 -0.142806 -0.337497
-0.41396 -0.117279 -0.300183
-0.507477 -0.105743 -0.258511
-0.590913 -0.165794 -0.432208
-0.676754 -0.14448 -0.356356
-0.470952 -0.235545 -0.236192
-0.550261 -0.211065 -0.211712
-0.644743 -0.319958 -0.320605
-0.708357 -0.278981 -0.279628
-0.507477 -0.105743 -0.258511
-0.600004 -0.0913437 -0.212532
-0.676754 -0.14448 -0.356356
-0.758888 -0.120632 -0.276958
-0.550261 -0.211065 -0.211712
-0.628899 -0.184156 -0.184678
-0.708357 -0.278981 -0.279628
-0.769874 -0.236492 -0.237015
-0.590913 -0.165794 -0.432208
-0.676754 -0.14448 -0.356356
-0.773471 -0.202627 -0.563888
-0.851335 -0.174015 -0.451874
-0.644743 -0.319958 -0.320605
-0.708357 -0.278981 -0.279628
-0.824585 -0.399413 -0.400015
-0.871165 -0.342664 -0.343267
-0.676754 -0.14448 -0.356356
-0.758888 -0.120632 -0.276958
-0.851335 -0.174015 -0.451874
-0.922347 -0.142806 -0.337497
-0.708357 -0.278981 -0.279628
-0.769874 -0.236492 -0.237015
-0.871165 -0.342664 -0.343267
-0.914377 -0.285304 -0.285786
-0.568547 5.25152e-05 -0.236181
-0.536335 -0.00238908 -0.116164
-0.743374 -0.00564889 -0.311937
-0.748817 -0.0104015 -0.159277
-0.600004 -0.0913437 -0.212532
-0.569856 -0.105842 -0.10621
-0.758888 -0.120632 -0.276958
-0.757049 -0.14233 -0.142698
-0.536335 -0.00238908 -0.116164
-0.499434 6.27081e-05 -0.000131533
-0.748817 -0.0104015 -0.159277
-0.745118 -0.00987858 -0.0100728
-0.569856 -0.105842 -0.10621
-0.536315 -0.115788 -0.00257471
-0.757049 -0.14233 -0.142698
-0.748797 -0.158901 -0.0105871
-0.743374 -0.00564889 -0.311937
-0.748817 -0.0104015 -0.159277
-0.923385 4.63477e-05 -0.383119
-0.968818 -0.00327664 -0.190911
-0.758888 -0.120632 -0.276958
-0.757049 -0.14233 -0.142698
-0.922347 -0.142806 -0.337497
-0.950657 -0.169858 -0.170183
-0.748817 -0.0104015 -0.159277
-0.745118 -0.00987858 -0.0100728
-0.968818 -0.00327664 -0.190911
-0.999364 6.5581e-05 -0.000113443
-0.757049 -0.14233 -0.142698
-0.748797 -0.158901 -0.0105871
-0.950657 -0.169858 -0.170183
-0.968766 -0.190574 -0.00344323
-0.600004 -0.0913437 -0.212532
-0.569856 -0.105842 -0.10621
-0.758888 -0.120632 -0.276958
-0.757049 -0.14233 -0.142698
-0.628899 -0.184156 -0.184678
-0.599939 -0.211915 -0.091659
-0.769874 -0.236492 -0.237015
-0.758824 -0.276341 -0.120948
-0.569856 -0.105842 -0.10621
-0.536315 -0.115788 -0.00257471
-0.757049 -0.14233 -0.142698
-0.748797 -0.158901 -0.0105871
-0.599939 -0.211915 -0.091659
-0.568471 -0.23554 -0.000109853
-0.758824 -0.276341 -0.120948
-0.743298 -0.311296 -0.00581126
-0.758888 -0.120632 -0.276958
-0.757049 -0.14233 -0.142698
-0.922347 -0.142806 -0.337497
-0.950657 -0.169858 -0.170183
-0.769874 -0.236492 -0.237015
-0.758824 -0.276341 -0.120948
-0.914377 -0.285304 -0.285786
-0.922256 -0.336915 -0.143081
-0.757049 -0.14233 -0.142698
-0.748797 -0.158901 -0.0105871
-0.950657 -0.169858 -0.170183
-0.968766 -0.190574 -0.00344323
-0.758824 -0.276341 -0.120948
-0.743298 -0.311296 -0.00581126
-0.922256 -0.336915 -0.143081
-0.92326 -0.382507 -9.47318e-05
-0.470952 -0.235545 -0.236192
-0.550261 -0.211065 -0.211712
-0.644743 -0.319958 -0.320605
-0.708357 -0.278981 -0.279628
-0.413894 -0.299291 -0.117657
-0.50741 -0.257619 -0.106122
-0.590847 -0.431316 -0.166173
-0.676687 -0.355465 -0.144859
-0.550261 -0.211065 -0.211712
-0.628899 -0.184156 -0.184678
-0.708357 -0.278981 -0.279628
-0.769874 -0.236492 -0.237015
-0.50741 -0.257619 -0.106122
-0.599939 -0.211915 -0.091659
-0.676687 -0.355465 -0.144859
-0.758824 -0.276341 -0.120948
-0.644743 -0.319958 -0.320605
-0.708357 -0.278981 -0.279628
-0.824585 -0.399413 -0.400015
-0.871165 -0.342664 -0.343267
-0.590847 -0.431316 -0.166173
-0.676687 -0.355465 -0.144859
-0.773355 -0.563004 -0.202954
-0.851218 -0.45099 -0.174341
-0.708357 -0.278981 -0.279628
-0.769874 -0.236492 -0.237015
-0.871165 -0.342664 -0.343267
-0.914377 -0.285304 -0.285786
-0.676687 -0.355465 -0.144859
-0.758824 -0.276341 -0.120948
-0.851218 -0.45099 -0.174341
-0.922256 -0.336915 -0.143081
-0.413894 -0.299291 -0.117657
-0.50741 -0.257619 -0.106122
-0.590847 -0.431316 -0.166173
-0.676687 -0.355465 -0.144859
-0.353092 -0.353234 -0.000125414
-0.461514 -0.297513 -0.00183346
-0.528363 -0.528506 -0.0102274
-0.638895 -0.423107 -0.0100596
-0.50741 -0.257619 -0.106122
-0.599939 -0.211915 -0.091659
-0.676687 -0.355465 -0.144859
-0.758824 -0.276341 -0.120948
-0.461514 -0.297513 -0.00183346
-0.568471 -0.23554 -0.000109853
-0.638895 -0.423107 -0.0100596
-0.743298 -0.311296 -0.00581126
-0.590847 -0.431316 -0.166173
-0.676687 -0.355465 -0.144859
-0.773355 -0.563004 -0.202954
-0.851218 -0.45099 -0.174341
-0.528363 -0.528506 -0.0102274
-0.638895 -0.423107 -0.0100596
-0.706592 -0.706746 -0.000109779
-0.82107 -0.547675 -0.00298575
-0.676687 -0.355465 -0.144859
-0.758824 -0.276341 -0.120948
-0.851218 -0.45099 -0.174341
-0.922256 -0.336915 -0.143081
-0.638895 -0.423107 -0.0100596
-0.743298 -0.311296 -0.00581126
-0.82107 -0.547675 -0.00298575
-0.92326 -0.382507 -9.47318e-05
-0.353146 6.20341e-05 -0.354197
-0.461568 -0.00164601 -0.298476
-0.41396 -0.117279 -0.300183
-0.507477 -0.105743 -0.258511
-0.173775 -0.0144237 -0.174615
-0.353336 -0.0140959 -0.15287
-0.294051 -0.154798 -0.155356
-0.431646 -0.134065 -0.134623
-0.461568 -0.00164601 -0.298476
-0.568547 5.25152e-05 -0.236181
-0.507477 -0.105743 -0.258511
-0.600004 -0.0913437 -0.212532
-0.353336 -0.0140959 -0.15287
-0.536335 -0.00238908 -0.116164
-0.431646 -0.134065 -0.134623
-0.569856 -0.105842 -0.10621
-0.41396 -0.117279 -0.300183
-0.507477 -0.105743 -0.258511
-0.470952 -0.235545 -0.236192
-0.550261 -0.211065 -0.211712
-0.294051 -0.154798 -0.155356
-0.431646 -0.134065 -0.134623
-0.413894 -0.299291 -0.117657
-0.50741 -0.257619 -0.106122
-0.507477 -0.105743 -0.258511
-0.600004 -0.0913437 -0.212532
-0.550261 -0.211065 -0.211712
-0.628899 -0.184156 -0.184678
-0.431646 -0.134065 -0.134623
-0.569856 -0.105842 -0.10621
-0.50741 -0.257619 -0.106122
-0.599939 -0.211915 -0.091659
-0.173775 -0.0144237 -0.174615
-0.353336 -0.0140959 -0.15287
-0.294051 -0.154798 -0.155356
-0.431646 -0.134065 -0.134623
0.000277372 9.34662e-05 -0.000199065
-0.243518 -0.012534 -0.0128266
-0.173856 -0.17404 -0.014699
-0.353417 -0.152295 -0.0143712
-0.353336 -0.0140959 -0.15287
-0.536335 -0.00238908 -0.116164
-0.431646 -0.134065 -0.134623
-0.569856 -0.105842 -0.10621
-0.243518 -0.012534 -0.0128266
-0.499434 6.27081e-05 -0.000131533
-0.353417 -0.152295 -0.0143712
-0.536315 -0.115788 -0.00257471
-0.294051 -0.154798 -0.155356
-0.431646 -0.134065 -0.134623
-0.413894 -0.299291 -0.117657
-0.50741 -0.257619 -0.106122
-0.173856 -0.17404 -0.014699
-0.353417 -0.152295 -0.0143712
-0.353092 -0.353234 -0.000125414
-0.461514 -0.297513 -0.00183346
-0.431646 -0.134065 -0.134623
-0.569856 -0.105842 -0.10621
-0.50741 -0.257619 -0.106122
-0.599939 -0.211915 -0.091659
-0.353417 -0.152295 -0.0143712
-0.536315 -0.115788 -0.00257471
-0.461514 -0.297513 -0.00183346
-0.568471 -0.23554 -0.000109853
0.353241 -2.46571e-05 0.354154
0.410871 0.117636 0.285919
0.537107 -0.0282025 0.538019
0.596451 0.137234 0.402957
0.459681 -0.00427579 0.291689
0.503269 0.102374 0.243621
0.641342 -0.0301406 0.418392
0.677947 0.118454 0.329773
0.410871 0.117636 0.285919
0.471036 0.23558 0.236143
0.596451 0.137234 0.402957
0.660678 0.312144 0.312678
0.503269 0.102374 0.243621
0.54821 0.208357 0.208917
0.677947 0.118454 0.329773
0.717245 0.26959 0.270134
0.537107 -0.0282025 0.538019
0.596451 0.137234 0.402957
0.706825 -1.60694e-05 0.707685
0.757523 0.193301 0.520269
0.641342 -0.0301406 0.418392
0.677947 0.118454 0.329773
0.807589 -0.0161635 0.545072
0.8313 0.161685 0.422317
0.596451 0.137234 0.402957
0.660678 0.312144 0.312678
0.757523 0.193301 0.520269
0.816154 0.408131 0.408591
0.677947 0.118454 0.329773
0.717245 0.26959 0.270134
0.8313 0.161685 0.422317
0.859564 0.346621 0.347098
0.459681 -0.00427579 0.291689
0.503269 0.102374 0.243621
0.641342 -0.0301406 0.418392
0.677947 0.118454 0.329773
0.56863 -2.42969e-05 0.236139
0.598092 0.0930709 0.20631
0.753501 -0.0138418 0.304621
0.766221 0.108315 0.259293
0.503269 0.102374 0.243621
0.54821 0.208357 0.208917
0.677947 0.118454 0.329773
0.717245 0.26959 0.270134
0.598092 0.0930709 0.20631
0.628123 0.185052 0.185494
0.766221 0.108315 0.259293
0.780435 0.22943 0.229871
0.641342 -0.0301406 0.418392
0.677947 0.118454 0.329773
0.807589 -0.0161635 0.545072
0.8313 0.161685 0.422317
0.753501 -0.0138418 0.304621
0.766221 0.108315 0.259293
0.923475 -2.07992e-05 0.38307
0.917119 0.143649 0.323154
0.677947 0.118454 0.329773
0.717245 0.26959 0.270134
0.8313 0.161685 0.422317
0.859564 0.346621 0.347098
0.766221 0.108315 0.259293
0.780435 0.22943 0.229871
0.917119 0.143649 0.323154
0.91352 0.28683 0.287214
0.471036 0.23558 0.236143
0.410781 0.28511 0.117929
0.660678 0.312144 0.312678
0.596362 0.402166 0.137513
0.54821 0.208357 0.208917
0.503179 0.242813 0.102665
0.717245 0.26959 0.270134
0.677857 0.328975 0.118738
0.410781 0.28511 0.117929
0.353151 0.353272 6.39967e-05
0.596362 0.402166 0.137513
[...]
POINT_DATA 8192
SCALARS M_0 double 1
LOOKUP_TABLE default
0.997772 1.00141 0.996135 1.00141 0.999777 1.00152 0.999945 1.00198 1.00141 1.00183 1.00141 1.00529 1.00152 1.00226 1.00198 1.00363 0.996135 1.00141 0.995355 1.00107 0.999945 1.00198 0.999938 1.00228 1.00141 1.00529 1.00107 1.00661 1.00198 1.00363 1.00228 1.00314 0.999777 1.00152 0.999945 1.00198 1.00257 1.00251 1.00433 1.00371 1.00152 1.00226 1.00198 1.00363 1.00251 1.00436 1.00371 1.0067 0.999945 1.00198 0.999938 1.00228 1.00433 1.00371 1.00234 1.00258 1.00198 1.00363 1.00228 1.00314 1.00371 1.0067 1.00258 1.00988 1.00183 1.00231 1.00529 1.00419 1.00226 1.00273 1.00363 1.00509 1.00231 1.00237 1.00419 1.00754 1.00273 1.0022 1.00509 1.00469 1.00529 1.00419 1.00661 1.00613 1.00363 1.00509 1.00314 1.0053 1.00419 1.00754 1.00613 1.01186 1.00509 1.00469 1.0053 1.01483 1.00226 1.00273 1.00363 1.00509 1.00436 1.00565 1.0067 1.00564 1.00273 1.0022 1.00509 1.00469 1.00565 1.00651 1.00564 1.00445 1.00363 1.00509 1.00314 1.0053 1.0067 1.00564 1.00988 1.01058 1.00509 1.00469 1.0053 1.01483 1.00564 1.00445 1.01058 1.0091 1.00257 1.00251 1.00433 1.00371 1.00166 1.00304 1.00497 1.00559 1.00251 1.00436 1.00371 1.0067 1.00304 1.00565 1.00559 1.00564 1.00433 1.00371 1.00234 1.00258 1.00497 1.00559 1.00739 1.00905 1.00371 1.0067 1.00258 1.00988 1.00559 1.00564 1.00905 1.01058 1.00166 1.00304 1.00497 1.00559 1.00466 1.0023 1.00609 1.0042 1.00304 1.00565 1.00559 1.00564 1.0023 1.00651 1.0042 1.00445 1.00497 1.00559 1.00739 1.00905 1.00609 1.0042 1.01296 1.00675 1.00559 1.00564 1.00905 1.01058 1.0042 1.00445 1.00675 1.0091 0.997772 1.00141 0.999777 1.00152 0.998957 1.00064 1.00067 1.00117 1.00141 1.00183 1.00152 1.00226 1.00064 1.00231 1.00117 1.00273 0.999777 1.00152 1.00257 1.00251 1.00067 1.00117 1.00166 1.00304 1.00152 1.00226 1.00251 1.00436 1.00117 1.00273 1.00304 1.00565 0.998957 1.00064 1.00067 1.00117 0.998957 0.99979 1.00031 1.00059 1.00064 1.00231 1.00117 1.00273 0.99979 1.00237 1.00059 1.0022 1.00067 1.00117 1.00166 1.00304 1.00031 1.00059 1.00466 1.0023 1.00117 1.00273 1.00304 1.00565 1.00059 1.0022 1.0023 1.00651 0.997519 1.00012 0.997302 1.00042 1.00057 1.00205 1.00114 1.00224 1.00012 1.00214 1.00042 1.00423 1.00205 1.00355 1.00224 1.00619 0.997302 1.00042 0.993962 1.00105 1.00114 1.00224 1.00094 1.00207 1.00042 1.00423 1.00105 1.0069 1.00224 1.00619 1.00207 1.00601 1.00057 1.00205 1.00114 1.00224 1.00077 1.00304 1.00346 1.00502 1.00205 1.00355 1.00224 1.00619 1.00304 1.00287 1.00502 1.00505 1.00114 1.00224 1.00094 1.00207 1.00346 1.00502 1.00912 1.00857 1.00224 1.00619 1.00207 1.00601 1.00502 1.00505 1.00857 1.00882 1.00214 1.00241 1.00423 1.00729 1.00355 1.00411 1.00619 1.00589 1.00241 1.00315 1.00729 1.00873 1.00411 1.00264 1.00589 1.00534 1.00423 1.00729 1.0069 1.00916 1.00619 1.00589 1.00601 1.01242 1.00729 1.00873 1.00916 1.01049 1.00589 1.00534 1.01242 1.00722 1.00355 1.00411 1.00619 1.00589 1.00287 1.00554 1.00505 1.006 1.00411 1.00264 1.00589 1.00534 1.00554 1.00623 1.006 1.00875 1.00619 1.00589 1.00601 1.01242 1.00505 1.006 1.00882 1.00896 1.00589 1.00534 1.01242 1.00722 1.006 1.00875 1.00896 1.0063 1.00077 1.00304 1.00346 1.00502 1.00194 1.00473 1.00479 1.00759 1.00304 1.00287 1.00502 1.00505 1.00473 1.00554 1.00759 1.006 1.00346 1.00502 1.00912 1.00857 1.00479 1.00759 1.00994 1.00736 1.00502 1.00505 1.00857 1.00882 1.00759 1.006 1.00736 1.00896 1.00194 1.00473 1.00479 1.00759 1.00335 1.00415 1.00478 1.00481 1.00473 1.00554 1.00759 1.006 1.00415 1.00623 1.00481 1.00875 1.00479 1.00759 1.00994 1.00736 1.00478 1.00481 1.01511 1.01159 1.00759 1.006 1.00736 1.00896 1.00481 1.00875 1.01159 1.0063 0.997519 1.00012 1.00057 1.00205 0.999123 1.00047 1.00018 1.00223 1.00012 1.00214 1.00205 1.00355 1.00047 1.00241 1.00223 1.00411 1.00057 1.00205 1.00077 1.00304 1.00018 1.00223 1.00194 1.00473 1.00205 1.00355 1.00304 1.00287 1.00223 1.00411 1.00473 1.00554 0.999123 1.00047 1.00018 1.00223 0.998957 1.0027 1.00116 1.00035 1.00047 1.00241 1.00223 1.00411 1.0027 1.00315 1.00035 1.00264 1.00018 1.00223 1.00194 1.00473 1.00116 1.00035 1.00335 1.00415 1.00223 1.00411 1.00473 1.00554 1.00035 1.00264 1.00415 1.00623 0.994074 0.993152 0.982923 0.989247 0.994133 0.991532 0.99103 0.98432 0.993152 0.993278 0.989247 0.989419 0.991532 0.991286 0.98432 0.988409 0.982923 0.989247 0.983381 0.96909 0.99103 0.98432 0.97902 0.983145 0.989247 0.989419 0.96909 0.985842 0.98432 0.988409 0.983145 0.976757 0.994133 0.991532 0.99103 0.98432 0.990838 0.991113 0.986937 0.987972 0.991532 0.991286 0.98432 0.988409 0.991113 0.993977 0.987972 0.993158 0.99103 0.98432 0.97902 0.983145 0.986937 0.987972 0.978586 0.984691 0.98432 0.988409 0.983145 0.976757 0.987972 0.993158 0.984691 0.978523 0.993278 0.996247 0.989419 0.994191 0.991286 0.996679 0.988409 0.988618 0.996247 0.998901 0.994191 0.997124 0.996679 0.99526 0.988618 0.992943 0.989419 0.994191 0.985842 0.990643 0.988409 0.988618 0.976757 0.989846 0.994191 0.997124 0.990643 0.993269 0.988618 0.992943 0.989846 0.992683 0.991286 0.996679 0.988409 0.988618 0.993977 0.994954 0.993158 0.987317 0.996679 0.99526 0.988618 0.992943 0.994954 0.995818 0.987317 0.99343 0.988409 0.988618 0.976757 0.989846 0.993158 0.987317 0.978523 0.98476 0.988618 0.992943 0.989846 0.992683 0.987317 0.99343 0.98476 0.98944 0.990838 0.991113 0.986937 0.987972 0.995878 0.993665 0.993559 0.993979 0.991113 0.993977 0.987972 0.993158 0.993665 0.994954 0.993979 0.987317 0.986937 0.987972 0.978586 0.984691 0.993559 0.993979 0.987554 0.988615 0.987972 0.993158 0.984691 0.978523 0.993979 0.987317 0.988615 0.98476 0.995878 0.993665 0.993559 0.993979 0.998384 0.997095 0.996276 0.995359 0.993665 0.994954 0.993979 0.987317 0.997095 0.995818 0.995359 0.99343 0.993559 0.993979 0.987554 0.988615 0.996276 0.995359 0.994594 0.99199 0.993979 0.987317 0.988615 0.98476 0.995359 0.99343 0.99199 0.98944 0.994074 0.993152 0.994133 0.991532 0.996267 0.996265 0.996222 0.993691 0.993152 0.993278 0.991532 0.991286 0.996265 0.996247 0.993691 0.996679 0.994133 0.991532 0.990838 0.991113 0.996222 0.993691 0.995878 0.993665 0.991532 0.991286 0.991113 0.993977 0.993691 0.996679 0.993665 0.994954 0.996267 0.996265 0.996222 0.993691 0.998957 0.996528 0.997554 0.997872 0.996265 0.996247 0.993691 0.996679 0.996528 0.998901 0.997872 0.99526 0.996222 0.993691 0.995878 0.993665 0.997554 0.997872 0.998384 0.997095 0.993691 0.996679 0.993665 0.994954 0.997872 0.99526 0.997095 0.995818 0.993376 0.993745 0.988138 0.985719 0.990027 0.991492 0.990372 0.988808 0.993745 0.996312 0.985719 0.990768 0.991492 0.990517 0.988808 0.993426 0.988138 0.985719 0.973306 0.985124 0.990372 0.988808 0.98057 0.977511 0.985719 0.990768 0.985124 0.984748 0.988808 0.993426 0.977511 0.985938 0.990027 0.991492 0.990372 0.988808 0.994188 0.991229 0.989292 0.987778 0.991492 0.990517 0.988808 0.993426 0.991229 0.989137 0.987778 0.984973 0.990372 0.988808 0.98057 0.977511 0.989292 0.987778 0.977778 0.982802 0.988808 0.993426 0.977511 0.985938 0.987778 0.984973 0.982802 0.984336 0.996312 0.996169 0.990768 0.99095 0.990517 0.994944 0.993426 0.990274 0.996169 0.997955 0.99095 0.996176 0.994944 0.995778 0.990274 0.993192 0.990768 0.99095 0.984748 0.988227 0.993426 0.990274 0.985938 0.985742 0.99095 0.996176 0.988227 0.995782 0.990274 0.993192 0.985742 0.990038 0.990517 0.994944 0.993426 0.990274 0.989137 0.996344 0.984973 0.988474 0.994944 0.995778 0.990274 0.993192 0.996344 0.996187 0.988474 0.992445 0.993426 0.990274 0.985938 0.985742 0.984973 0.988474 0.984336 0.990993 0.990274 0.993192 0.985742 0.990038 0.988474 0.992445 0.990993 0.993117 0.994188 0.991229 0.989292 0.987778 0.996791 0.993525 0.990114 0.991483 0.991229 0.989137 0.987778 0.984973 0.993525 0.996344 0.991483 0.988474 0.989292 0.987778 0.977778 0.982802 0.990114 0.991483 0.986407 0.982444 0.987778 0.984973 0.982802 0.984336 0.991483 0.988474 0.982444 0.990993 0.996791 0.993525 0.990114 0.991483 0.997079 0.996846 0.995317 0.992893 0.993525 0.996344 0.991483 0.988474 0.996846 0.996187 0.992893 0.992445 0.990114 0.991483 0.986407 0.982444 0.995317 0.992893 0.994181 0.992269 0.991483 0.988474 0.982444 0.990993 0.992893 0.992445 0.992269 0.993117 0.993376 0.993745 0.990027 0.991492 0.997147 0.997659 0.995138 0.99323 0.993745 0.996312 0.991492 0.990517 0.997659 0.996169 0.99323 0.994944 0.990027 0.991492 0.994188 0.991229 0.995138 0.99323 0.996791 0.993525 0.991492 0.990517 0.991229 0.989137 0.99323 0.994944 0.993525 0.996344 0.997147 0.997659 0.995138 0.99323 0.998957 0.997462 0.998131 0.996394 0.997659 0.996169 0.99323 0.994944 0.997462 0.997955 0.996394 0.995778 0.995138 0.99323 0.996791 0.993525 0.998131 0.996394 0.997079 0.996846 0.99323 0.994944 0.993525 0.996344 0.996394 0.995778 0.996846 0.996187 0.997855 1.00022 0.996239 1.0008 1.00065 1.00091 1.0013 1.00263 1.00022 1.00303 1.0008 1.00497 1.00091 1.00332 1.00263 1.00415 0.996239 1.0008 0.997105 1.00053 1.0013 1.00263 1.00083 1.00275 1.0008 1.00497 1.00053 1.00676 1.00263 1.00415 1.00275 1.00887 1.00065 1.00091 1.0013 1.00263 1.00188 1.00263 1.00424 1.00375 1.00091 1.00332 1.00263 1.00415 1.00263 1.00579 1.00375 1.00762 1.0013 1.00263 1.00083 1.00275 1.00424 1.00375 1.00474 1.00659 1.00263 1.00415 1.00275 1.00887 1.00375 1.00762 1.00659 1.00751 1.00303 1.00295 1.00497 1.0051 1.00332 1.00419 1.00415 1.00468 1.00295 1.00337 1.0051 1.00791 1.00419 1.00403 1.00468 1.00478 1.00497 1.0051 1.00676 1.00905 1.00415 1.00468 1.00887 1.01414 1.0051 1.00791 1.00905 1.01251 1.00468 1.00478 1.01414 1.01509 1.00332 1.00419 1.00415 1.00468 1.00579 1.00655 1.00762 1.00716 1.00419 1.00403 1.00468 1.00478 1.00655 1.00787 1.00716 1.00781 1.00415 1.00468 1.00887 1.01414 1.00762 1.00716 1.00751 1.01249 1.00468 1.00478 1.01414 1.01509 1.00716 1.00781 1.01249 1.00639 1.00188 1.00263 1.00424 1.00375 1.00131 1.00463 1.00626 1.00361 1.00263 1.00579 1.00375 1.00762 1.00463 1.00655 1.00361 1.00716 1.00424 1.00375 1.00474 1.00659 1.00626 1.00361 1.00783 1.00903 1.00375 1.00762 1.00659 1.00751 1.00361 1.00716 1.00903 1.01249 1.00131 1.00463 1.00626 1.00361 1.00335 1.00243 1.00768 1.00703 1.00463 1.00655 1.00361 1.00716 1.00243 1.00787 1.00703 1.00781 1.00626 1.00361 1.00783 1.00903 1.00768 1.00703 1.01149 1.01036 1.00361 1.00716 1.00903 1.01249 1.00703 1.00781 1.01036 1.00639 0.997855 1.00022 1.00065 1.00091 0.998255 1.00055 0.999988 1.00126 1.00022 1.00303 1.00091 1.00332 1.00055 1.00295 1.00126 1.00419 1.00065 1.00091 1.00188 1.00263 0.999988 1.00126 1.00131 1.00463 1.00091 1.00332 1.00263 1.00579 1.00126 1.00419 1.00463 1.00655 0.998255 1.00055 0.999988 1.00126 0.998957 1.00151 1.00002 1.00044 1.00055 1.00295 1.00126 1.00419 1.00151 1.00337 1.00044 1.00403 0.999988 1.00126 1.00131 1.00463 1.00002 1.00044 1.00335 1.00243 1.00126 1.00419 1.00463 1.00655 1.00044 1.00403 1.00243 1.00787 1.00255 1.00249 1.00681 1.00701 1.00297 1.00468 1.00622 1.00547 1.00249 1.00169 1.00701 1.00342 1.00468 1.00396 1.00547 1.00508 1.00681 1.00701 1.00804 1.01083 1.00622 1.00547 1.01113 1.0094 1.00701 1.00342 1.01083 1.00455 1.00547 1.00508 1.0094 1.0058 1.00297 1.00468 1.00622 1.00547 1.00633 1.00691 1.00837 1.00848 1.00468 1.00396 1.00547 1.00508 1.00691 1.00508 1.00848 1.00615 1.00622 1.00547 1.01113 1.0094 1.00837 1.00848 1.01184 1.01091 1.00547 1.00508 1.0094 1.0058 1.00848 1.00615 1.01091 1.00675 1.00169 0.999489 1.00342 0.999999 1.00396 1.00175 1.00508 1.00378 0.999489 0.997438 0.999999 0.998218 1.00175 1.0003 1.00378 1.00163 1.00342 0.999999 1.00455 0.999799 1.00508 1.00378 1.0058 1.00454 0.999999 0.998218 0.999799 0.993384 1.00378 1.00163 1.00454 1.00139 1.00396 1.00175 1.00508 1.00378 1.00508 1.00158 1.00615 1.00547 1.00175 1.0003 1.00378 1.00163 1.00158 1.00166 1.00547 1.00385 1.00508 1.00378 1.0058 1.00454 1.00615 1.00547 1.00675 1.00476 1.00378 1.00163 1.00454 1.00139 1.00547 1.00385 1.00476 1.00591 1.00633 1.00691 1.00837 1.00848 1.00566 1.00506 1.00847 1.00551 1.00691 1.00508 1.00848 1.00615 1.00506 1.00158 1.00551 1.00547 1.00837 1.00848 1.01184 1.01091 1.00847 1.00551 1.01314 1.00656 1.00848 1.00615 1.01091 1.00675 1.00551 1.00547 1.00656 1.00476 1.00566 1.00506 1.00847 1.00551 1.0026 1.0033 1.00539 1.0056 1.00506 1.00158 1.00551 1.00547 1.0033 1.00166 1.0056 1.00385 1.00847 1.00551 1.01314 1.00656 1.00539 1.0056 1.01396 1.0081 1.00551 1.00547 1.00656 1.00476 1.0056 1.00385 1.0081 1.00591 1.00255 1.00249 1.00297 1.00468 1.00146 1.00067 1.00323 1.00319 1.00249 1.00169 1.00468 1.00396 1.00067 0.999489 1.00319 1.00175 1.00297 1.00468 1.00633 1.00691 1.00323 1.00319 1.00566 1.00506 1.00468 1.00396 1.00691 1.00508 1.00319 1.00175 1.00506 1.00158 1.00146 1.00067 1.00323 1.00319 0.998957 0.999718 1.00301 1.00136 1.00067 0.999489 1.00319 1.00175 0.999718 0.997438 1.00136 1.0003 1.00323 1.00319 1.00566 1.00506 1.00301 1.00136 1.0026 1.0033 1.00319 1.00175 1.00506 1.00158 1.00136 1.0003 1.0033 1.00166 1.00255 1.00297 1.00681 1.00622 1.0017 1.00047 1.00677 1.00449 1.00297 1.00633 1.00622 1.00837 1.00047 1.00564 1.00449 1.0078 1.00681 1.00622 1.00804 1.01113 1.00677 1.00449 1.00625 1.0049 1.00622 1.00837 1.01113 1.01184 1.00449 1.0078 1.0049 1.00318 1.0017 1.00047 1.00677 1.00449 1.00143 1.00212 1.00388 1.00602 1.00047 1.00564 1.00449 1.0078 1.00212 1.00454 1.00602 1.00799 1.00677 1.00449 1.00625 1.0049 1.00388 1.00602 1.00504 1.00741 1.00449 1.0078 1.0049 1.00318 1.00602 1.00799 1.00741 1.0081 1.00633 1.00566 1.00837 1.00847 1.00564 1.00297 1.0078 1.00494 1.00566 1.0026 1.00847 1.00539 1.00297 1.00351 1.00494 1.00717 1.00837 1.00847 1.01184 1.01314 1.0078 1.00494 1.00318 1.01056 1.00847 1.00539 1.01314 1.01396 1.00494 1.00717 1.01056 1.01158 1.00564 1.00297 1.0078 1.00494 1.00454 1.00263 1.00799 1.00585 1.00297 1.00351 1.00494 1.00717 1.00263 1.00083 1.00585 1.00329 1.0078 1.00494 1.00318 1.01056 1.00799 1.00585 1.0081 1.01172 1.00494 1.00717 1.01056 1.01158 1.00585 1.00329 1.01172 1.00422 1.00143 1.00212 1.00388 1.00602 0.99922 1.00154 0.999352 1.00284 1.00212 1.00454 1.00602 1.00799 1.00154 1.00263 1.00284 1.00585 1.00388 1.00602 1.00504 1.00741 0.999352 1.00284 0.999749 1.00422 1.00602 1.00799 1.00741 1.0081 1.00284 1.00585 1.00422 1.01172 0.99922 1.00154 0.999352 1.00284 0.998384 0.999336 0.996276 0.999962 1.00154 1.00263 1.00284 1.00585 0.999336 1.00083 0.999962 1.00329 0.999352 1.00284 0.999749 1.00422 0.996276 0.999962 0.994594 1.00008 1.00284 1.00585 1.00422 1.01172 0.999962 1.00329 1.00008 1.00422 1.00255 1.00297 1.0017 1.00047 1.00146 1.00323 1 1.0025 1.00297 1.00633 1.00047 1.00564 1.00323 1.00566 1.0025 1.00297 1.0017 1.00047 1.00143 1.00212 1 1.0025 0.99922 1.00154 1.00047 1.00564 1.00212 1.00454 1.0025 1.00297 1.00154 1.00263 1.00146 1.00323 1 1.0025 0.998957 1.00301 0.997554 0.999478 1.00323 1.00566 1.0025 1.00297 1.00301 1.0026 0.999478 1.00351 1 1.0025 0.99922 1.00154 0.997554 0.999478 0.998384 0.999336 1.0025 1.00297 1.00154 1.00263 0.999478 1.00351 0.999336 1.00083 0.997519 1.00057 0.997302 1.00114 1.00067 1.00189 1.00079 1.00309 1.00057 1.00077 1.00114 1.00346 1.00189 1.00431 1.00309 1.0056 0.997302 1.00114 0.993962 1.00094 1.00079 1.00309 0.999784 1.00304 1.00114 1.00346 1.00094 1.00912 1.00309 1.0056 1.00304 1.00451 1.00067 1.00189 1.00079 1.00309 1.00218 1.00191 1.0039 1.00506 1.00189 1.00431 1.00309 1.0056 1.00191 1.00452 1.00506 1.00667 1.00079 1.00309 0.999784 1.00304 1.0039 1.00506 1.00271 1.00718 1.00309 1.0056 1.00304 1.00451 1.00506 1.00667 1.00718 1.01307 1.00077 1.00194 1.00346 1.00479 1.00431 1.00235 1.0056 1.00803 1.00194 1.00335 1.00479 1.00478 1.00235 1.00411 1.00803 1.00516 1.00346 1.00479 1.00912 1.00994 1.0056 1.00803 1.00451 1.014 1.00479 1.00478 1.00994 1.01511 1.00803 1.00516 1.014 1.00832 1.00431 1.00235 1.0056 1.00803 1.00452 1.00362 1.00667 1.00442 1.00235 1.00411 1.00803 1.00516 1.00362 1.00417 1.00442 1.00692 1.0056 1.00803 1.00451 1.014 1.00667 1.00442 1.01307 1.01111 1.00803 1.00516 1.014 1.00832 1.00442 1.00692 1.01111 1.00745 1.00218 1.00191 1.0039 1.00506 1.00318 1.00447 1.00429 1.00513 1.00191 1.00452 1.00506 1.00667 1.00447 1.00362 1.00513 1.00442 1.0039 1.00506 1.00271 1.00718 1.00429 1.00513 1.01146 1.00768 1.00506 1.00667 1.00718 1.01307 1.00513 1.00442 1.00768 1.01111 1.00318 1.00447 1.00429 1.00513 1.00337 1.00505 1.00791 1.00781 1.00447 1.00362 1.00513 1.00442 1.00505 1.00417 1.00781 1.00692 1.00429 1.00513 1.01146 1.00768 1.00791 1.00781 1.01251 1.01272 1.00513 1.00442 1.00768 1.01111 1.00781 1.00692 1.01272 1.00745 0.997519 1.00057 1.00067 1.00189 0.999123 1.00018 1.00155 1.00252 1.00057 1.00077 1.00189 1.00431 1.00018 1.00194 1.00252 1.00235 1.00067 1.00189 1.00218 1.00191 1.00155 1.00252 1.00318 1.00447 1.00189 1.00431 1.00191 1.00452 1.00252 1.00235 1.00447 1.00362 0.999123 1.00018 1.00155 1.00252 0.998957 1.00116 1.00151 1.00289 1.00018 1.00194 1.00252 1.00235 1.00116 1.00335 1.00289 1.00411 1.00155 1.00252 1.00318 1.00447 1.00151 1.00289 1.00337 1.00505 1.00252 1.00235 1.00447 1.00362 1.00289 1.00411 1.00505 1.00417 0.997438 0.999884 0.998218 1.00008 1.0003 1.00107 1.00163 1.00332 0.999884 1.00229 1.00008 1.00328 1.00107 1.00073 1.00332 1.00387 0.998218 1.00008 0.993384 0.999791 1.00163 1.00332 1.00139 1.00177 1.00008 1.00328 0.999791 1.00129 1.00332 1.00387 1.00177 1.00087 1.0003 1.00107 1.00163 1.00332 1.00166 1.00082 1.00385 1.00236 1.00107 1.00073 1.00332 1.00387 1.00082 1.00047 1.00236 1.00465 1.00163 1.00332 1.00139 1.00177 1.00385 1.00236 1.00591 1.00575 1.00332 1.00387 1.00177 1.00087 1.00236 1.00465 1.00575 1.0088 1.00315 1.00646 1.00873 1.00754 1.00244 1.00352 1.00522 1.00791 1.00646 1.00719 1.00754 1.01054 1.00352 1.00624 1.00791 1.00776 1.00873 1.00754 1.01049 1.01101 1.00522 1.00791 1.00796 1.01233 1.00754 1.01054 1.01101 1.0121 1.00791 1.00776 1.01233 1.01078 1.00244 1.00352 1.00522 1.00791 1.00229 1.00073 1.00328 1.00387 1.00352 1.00624 1.00791 1.00776 1.00073 1.00047 1.00387 1.00465 1.00522 1.00791 1.00796 1.01233 1.00328 1.00387 1.00129 1.00087 1.00791 1.00776 1.01233 1.01078 1.00387 1.00465 1.00087 1.0088 1.0026 1.0033 1.00539 1.0056 1.00497 1.00388 1.00706 1.00573 1.0033 1.00166 1.0056 1.00385 1.00388 1.00082 1.00573 1.00236 1.00539 1.0056 1.01396 1.0081 1.00706 1.00573 1.00793 1.01076 1.0056 1.00385 1.0081 1.00591 1.00573 1.00236 1.01076 1.00575 1.00497 1.00388 1.00706 1.00573 1.00719 1.00624 1.01054 1.00776 1.00388 1.00082 1.00573 1.00236 1.00624 1.00047 1.00776 1.00465 1.00706 1.00573 1.00793 1.01076 1.01054 1.00776 1.0121 1.01078 1.00573 1.00236 1.01076 1.00575 1.00776 1.00465 1.01078 1.0088 0.998957 0.999718 1.00301 1.00136 1.0027 1.00047 1.00487 1.00228 0.999718 0.997438 1.00136 1.0003 1.00047 0.999884 1.00228 1.00107 1.00301 1.00136 1.0026 1.0033 1.00487 1.00228 1.00497 1.00388 1.00136 1.0003 1.0033 1.00166 1.00228 1.00107 1.00388 1.00082 1.0027 1.00047 1.00487 1.00228 1.00315 1.00244 1.00646 1.00352 1.00047 0.999884 1.00228 1.00107 1.00244 1.00229 1.00352 1.00073 1.00487 1.00228 1.00497 1.00388 1.00646 1.00352 1.00719 1.00624 1.00228 1.00107 1.00388 1.00082 1.00352 1.00073 1.00624 1.00047 1.00259 1.00176 1.00399 1.00554 1.00058 1.00289 1.00077 1.00436 1.00176 1.00398 1.00554 1.00666 1.00289 1.00422 1.00436 1.00522 1.00399 1.00554 1.00641 1.00791 1.00077 1.00436 1.00066 1.0047 1.00554 1.00666 1.00791 1.00442 1.00436 1.00522 1.0047 1.00821 1.00058 1.00289 1.00077 1.00436 0.997772 1.00141 0.996135 1.00141 1.00289 1.00422 1.00436 1.00522 1.00141 1.00183 1.00141 1.00529 1.00077 1.00436 1.00066 1.0047 0.996135 1.00141 0.995355 1.00107 1.00436 1.00522 1.0047 1.00821 1.00141 1.00529 1.00107 1.00661 1.00259 1.00352 1.00399 1.00465 1.00176 1.00328 1.00554 1.00645 1.00352 1.00255 1.00465 1.00681 1.00328 1.00182 1.00645 1.00673 1.00399 1.00465 1.00641 1.01527 1.00554 1.00645 1.00791 1.00479 1.00465 1.00681 1.01527 1.00804 1.00645 1.00673 1.00479 1.00681 1.00176 1.00328 1.00554 1.00645 1.00398 1.00405 1.00666 1.00634 1.00328 1.00182 1.00645 1.00673 1.00405 1.00505 1.00634 1.00583 1.00554 1.00645 1.00791 1.00479 1.00666 1.00634 1.00442 1.00972 1.00645 1.00673 1.00479 1.00681 1.00634 1.00583 1.00972 1.01175 1.00398 1.00405 1.00666 1.00634 1.00422 1.00429 1.00522 1.00765 1.00405 1.00505 1.00634 1.00