# vtk DataFile Version 3.0
#This file was generated by the deal.II library on 2025/4/17 at 14:12:43
ASCII
DATASET UNSTRUCTURED_GRID

POINTS 8192 double
-0.353088 7.13714e-05 -0.35429
-0.46151 -0.00163667 -0.298568
-0.52836 -0.0100306 -0.529561
-0.638892 -0.00986277 -0.424162
-0.413903 -0.117269 -0.300275
-0.507419 -0.105734 -0.258603
-0.590856 -0.165785 -0.4323
-0.676696 -0.144471 -0.356449
-0.46151 -0.00163667 -0.298568
-0.568477 6.05036e-05 -0.23625
-0.638892 -0.00986277 -0.424162
-0.743304 -0.0056409 -0.312006
-0.507419 -0.105734 -0.258603
-0.599934 -0.0913357 -0.212601
-0.676696 -0.144471 -0.356449
-0.758819 -0.120624 -0.277027
-0.52836 -0.0100306 -0.529561
-0.638892 -0.00986277 -0.424162
-0.706662 5.86827e-05 -0.707816
-0.821141 -0.00281729 -0.548745
-0.590856 -0.165785 -0.4323
-0.676696 -0.144471 -0.356449
-0.773416 -0.202619 -0.563977
-0.851279 -0.174007 -0.451963
-0.638892 -0.00986277 -0.424162
-0.743304 -0.0056409 -0.312006
-0.821141 -0.00281729 -0.548745
-0.923315 5.34675e-05 -0.383181
-0.676696 -0.144471 -0.356449
-0.758819 -0.120624 -0.277027
-0.851279 -0.174007 -0.451963
-0.922277 -0.142799 -0.33756
-0.413903 -0.117269 -0.300275
-0.507419 -0.105734 -0.258603
-0.590856 -0.165785 -0.4323
-0.676696 -0.144471 -0.356449
-0.470888 -0.235522 -0.236262
-0.550197 -0.211042 -0.211782
-0.644678 -0.319935 -0.320675
-0.708293 -0.278958 -0.279698
-0.507419 -0.105734 -0.258603
-0.599934 -0.0913357 -0.212601
-0.676696 -0.144471 -0.356449
-0.758819 -0.120624 -0.277027
-0.550197 -0.211042 -0.211782
-0.628826 -0.184136 -0.184734
-0.708293 -0.278958 -0.279698
-0.769801 -0.236472 -0.23707
-0.590856 -0.165785 -0.4323
-0.676696 -0.144471 -0.356449
-0.773416 -0.202619 -0.563977
-0.851279 -0.174007 -0.451963
-0.644678 -0.319935 -0.320675
-0.708293 -0.278958 -0.279698
-0.82452 -0.39939 -0.400079
-0.8711 -0.342642 -0.343331
-0.676696 -0.144471 -0.356449
-0.758819 -0.120624 -0.277027
-0.851279 -0.174007 -0.451963
-0.922277 -0.142799 -0.33756
-0.708293 -0.278958 -0.279698
-0.769801 -0.236472 -0.23707
-0.8711 -0.342642 -0.343331
-0.914302 -0.285284 -0.285835
-0.568477 6.05036e-05 -0.23625
-0.536257 -0.0023809 -0.116209
-0.743304 -0.0056409 -0.312006
-0.748739 -0.0103933 -0.159322
-0.599934 -0.0913357 -0.212601
-0.569778 -0.105834 -0.106255
-0.758819 -0.120624 -0.277027
-0.756971 -0.142322 -0.142743
-0.536257 -0.0023809 -0.116209
-0.499353 7.20722e-05 -0.00015059
-0.748739 -0.0103933 -0.159322
-0.745038 -0.00986922 -0.0100919
-0.569778 -0.105834 -0.106255
-0.536234 -0.115779 -0.00259376
-0.756971 -0.142322 -0.142743
-0.748716 -0.158892 -0.0106062
-0.743304 -0.0056409 -0.312006
-0.748739 -0.0103933 -0.159322
-0.923315 5.34675e-05 -0.383181
-0.968735 -0.00326858 -0.19095
-0.758819 -0.120624 -0.277027
-0.756971 -0.142322 -0.142743
-0.922277 -0.142799 -0.33756
-0.950574 -0.16985 -0.170222
-0.748739 -0.0103933 -0.159322
-0.745038 -0.00986922 -0.0100919
-0.968735 -0.00326858 -0.19095
-0.999274 7.53768e-05 -0.000129919
-0.756971 -0.142322 -0.142743
-0.748716 -0.158892 -0.0106062
-0.950574 -0.16985 -0.170222
-0.968675 -0.190564 -0.0034597
-0.599934 -0.0913357 -0.212601
-0.569778 -0.105834 -0.106255
-0.758819 -0.120624 -0.277027
-0.756971 -0.142322 -0.142743
-0.628826 -0.184136 -0.184734
-0.59986 -0.211895 -0.0916968
-0.769801 -0.236472 -0.23707
-0.758745 -0.276321 -0.120986
-0.569778 -0.105834 -0.106255
-0.536234 -0.115779 -0.00259376
-0.756971 -0.142322 -0.142743
-0.748716 -0.158892 -0.0106062
-0.59986 -0.211895 -0.0916968
-0.56839 -0.235517 -0.000125741
-0.758745 -0.276321 -0.120986
-0.743217 -0.311272 -0.00582714
-0.758819 -0.120624 -0.277027
-0.756971 -0.142322 -0.142743
-0.922277 -0.142799 -0.33756
-0.950574 -0.16985 -0.170222
-0.769801 -0.236472 -0.23707
-0.758745 -0.276321 -0.120986
-0.914302 -0.285284 -0.285835
-0.922172 -0.336894 -0.143114
-0.756971 -0.142322 -0.142743
-0.748716 -0.158892 -0.0106062
-0.950574 -0.16985 -0.170222
-0.968675 -0.190564 -0.0034597
-0.758745 -0.276321 -0.120986
-0.743217 -0.311272 -0.00582714
-0.922172 -0.336894 -0.143114
-0.923172 -0.382481 -0.000108446
-0.470888 -0.235522 -0.236262
-0.550197 -0.211042 -0.211782
-0.644678 -0.319935 -0.320675
-0.708293 -0.278958 -0.279698
-0.413826 -0.299255 -0.117703
-0.507343 -0.257583 -0.106167
-0.590779 -0.43128 -0.166218
-0.67662 -0.355429 -0.144904
-0.550197 -0.211042 -0.211782
-0.628826 -0.184136 -0.184734
-0.708293 -0.278958 -0.279698
-0.769801 -0.236472 -0.23707
-0.507343 -0.257583 -0.106167
-0.59986 -0.211895 -0.0916968
-0.67662 -0.355429 -0.144904
-0.758745 -0.276321 -0.120986
-0.644678 -0.319935 -0.320675
-0.708293 -0.278958 -0.279698
-0.82452 -0.39939 -0.400079
-0.8711 -0.342642 -0.343331
-0.590779 -0.43128 -0.166218
-0.67662 -0.355429 -0.144904
-0.773283 -0.562966 -0.202993
-0.851146 -0.450952 -0.174381
-0.708293 -0.278958 -0.279698
-0.769801 -0.236472 -0.23707
-0.8711 -0.342642 -0.343331
-0.914302 -0.285284 -0.285835
-0.67662 -0.355429 -0.144904
-0.758745 -0.276321 -0.120986
-0.851146 -0.450952 -0.174381
-0.922172 -0.336894 -0.143114
-0.413826 -0.299255 -0.117703
-0.507343 -0.257583 -0.106167
-0.590779 -0.43128 -0.166218
-0.67662 -0.355429 -0.144904
-0.353026 -0.353189 -0.00014341
-0.461448 -0.297467 -0.00185146
-0.528297 -0.52846 -0.0102454
-0.63883 -0.423061 -0.0100776
-0.507343 -0.257583 -0.106167
-0.59986 -0.211895 -0.0916968
-0.67662 -0.355429 -0.144904
-0.758745 -0.276321 -0.120986
-0.461448 -0.297467 -0.00185146
-0.56839 -0.235517 -0.000125741
-0.63883 -0.423061 -0.0100776
-0.743217 -0.311272 -0.00582714
-0.590779 -0.43128 -0.166218
-0.67662 -0.355429 -0.144904
-0.773283 -0.562966 -0.202993
-0.851146 -0.450952 -0.174381
-0.528297 -0.52846 -0.0102454
-0.63883 -0.423061 -0.0100776
-0.706519 -0.706695 -0.000125529
-0.820997 -0.547623 -0.0030015
-0.67662 -0.355429 -0.144904
-0.758745 -0.276321 -0.120986
-0.851146 -0.450952 -0.174381
-0.922172 -0.336894 -0.143114
-0.63883 -0.423061 -0.0100776
-0.743217 -0.311272 -0.00582714
-0.820997 -0.547623 -0.0030015
-0.923172 -0.382481 -0.000108446
-0.353088 7.13714e-05 -0.35429
-0.46151 -0.00163667 -0.298568
-0.413903 -0.117269 -0.300275
-0.507419 -0.105734 -0.258603
-0.173724 -0.0144124 -0.174684
-0.353285 -0.0140846 -0.15294
-0.294 -0.154786 -0.155425
-0.431595 -0.134054 -0.134692
-0.46151 -0.00163667 -0.298568
-0.568477 6.05036e-05 -0.23625
-0.507419 -0.105734 -0.258603
-0.599934 -0.0913357 -0.212601
-0.353285 -0.0140846 -0.15294
-0.536257 -0.0023809 -0.116209
-0.431595 -0.134054 -0.134692
-0.569778 -0.105834 -0.106255
-0.413903 -0.117269 -0.300275
-0.507419 -0.105734 -0.258603
-0.470888 -0.235522 -0.236262
-0.550197 -0.211042 -0.211782
-0.294 -0.154786 -0.155425
-0.431595 -0.134054 -0.134692
-0.413826 -0.299255 -0.117703
-0.507343 -0.257583 -0.106167
-0.507419 -0.105734 -0.258603
-0.599934 -0.0913357 -0.212601
-0.550197 -0.211042 -0.211782
-0.628826 -0.184136 -0.184734
-0.431595 -0.134054 -0.134692
-0.569778 -0.105834 -0.106255
-0.507343 -0.257583 -0.106167
-0.59986 -0.211895 -0.0916968
-0.173724 -0.0144124 -0.174684
-0.353285 -0.0140846 -0.15294
-0.294 -0.154786 -0.155425
-0.431595 -0.134054 -0.134692
0.0003166 0.000107191 -0.000227624
-0.243479 -0.0125203 -0.0128551
-0.173817 -0.174027 -0.0147275
-0.353378 -0.152282 -0.0143997
-0.353285 -0.0140846 -0.15294
-0.536257 -0.0023809 -0.116209
-0.431595 -0.134054 -0.134692
-0.569778 -0.105834 -0.106255
-0.243479 -0.0125203 -0.0128551
-0.499353 7.20722e-05 -0.00015059
-0.353378 -0.152282 -0.0143997
-0.536234 -0.115779 -0.00259376
-0.294 -0.154786 -0.155425
-0.431595 -0.134054 -0.134692
-0.413826 -0.299255 -0.117703
-0.507343 -0.257583 -0.106167
-0.173817 -0.174027 -0.0147275
-0.353378 -0.152282 -0.0143997
-0.353026 -0.353189 -0.00014341
-0.461448 -0.297467 -0.00185146
-0.431595 -0.134054 -0.134692
-0.569778 -0.105834 -0.106255
-0.507343 -0.257583 -0.106167
-0.59986 -0.211895 -0.0916968
-0.353378 -0.152282 -0.0143997
-0.536234 -0.115779 -0.00259376
-0.461448 -0.297467 -0.00185146
-0.56839 -0.235517 -0.000125741
0.353197 -2.80418e-05 0.35424
0.410826 0.117633 0.286005
0.537062 -0.0282059 0.538105
0.596406 0.13723 0.403043
0.459636 -0.00427917 0.291775
0.503224 0.10237 0.243707
0.641297 -0.030144 0.418478
0.677902 0.118451 0.329859
0.410826 0.117633 0.286005
0.470983 0.235563 0.236206
0.596406 0.13723 0.403043
0.660625 0.312127 0.312741
0.503224 0.10237 0.243707
0.548157 0.20834 0.20898
0.677902 0.118451 0.329859
0.717191 0.269573 0.270197
0.537062 -0.0282059 0.538105
0.596406 0.13723 0.403043
0.706784 -1.82328e-05 0.707768
0.757482 0.193299 0.520352
0.641297 -0.030144 0.418478
0.677902 0.118451 0.329859
0.807549 -0.0161657 0.545156
0.83126 0.161683 0.4224
0.596406 0.13723 0.403043
0.660625 0.312127 0.312741
0.757482 0.193299 0.520352
0.816101 0.408115 0.408647
0.677902 0.118451 0.329859
0.717191 0.269573 0.270197
0.83126 0.161683 0.4224
0.859511 0.346604 0.347154
0.459636 -0.00427917 0.291775
0.503224 0.10237 0.243707
0.641297 -0.030144 0.418478
0.677902 0.118451 0.329859
0.568572 -2.76386e-05 0.236202
0.598034 0.0930675 0.206373
0.753443 -0.0138451 0.304684
0.766163 0.108312 0.259356
0.503224 0.10237 0.243707
0.548157 0.20834 0.20898
0.677902 0.118451 0.329859
0.717191 0.269573 0.270197
0.598034 0.0930675 0.206373
0.62806 0.185037 0.185543
0.766163 0.108312 0.259356
0.780372 0.229415 0.22992
0.641297 -0.030144 0.418478
0.677902 0.118451 0.329859
0.807549 -0.0161657 0.545156
0.83126 0.161683 0.4224
0.753443 -0.0138451 0.304684
0.766163 0.108312 0.259356
0.923416 -2.36461e-05 0.383126
0.917061 0.143646 0.32321
0.677902 0.118451 0.329859
0.717191 0.269573 0.270197
0.83126 0.161683 0.4224
0.859511 0.346604 0.347154
0.766163 0.108312 0.259356
0.780372 0.229415 0.22992
0.917061 0.143646 0.32321
0.913455 0.286815 0.287255
0.470983 0.235563 0.236206
0.410723 0.28508 0.117967
0.660625 0.312127 0.312741
0.596304 0.402136 0.137552
0.548157 0.20834 0.20898
0.503121 0.242783 0.102704
0.717191 0.269573 0.270197
0.677799 0.328945 0.118777
0.410723 0.28508 0.117967
0.353093 0.353232 7.33518e-05
0.596304 0.402136 0.137552
0.536959 0.537097 -0.0281045
0.503121 0.242783 0.102704
[...]
POINT_DATA 8192
SCALARS M_0 double 1
LOOKUP_TABLE default
0.997684 1.00154 0.996111 1.00153 0.999731 1.00146 0.999928 1.00193 1.00154 1.00178 1.00153 1.00526 1.00146 1.00206 1.00193 1.00348 0.996111 1.00153 0.995319 1.00114 0.999928 1.00193 0.999918 1.00223 1.00153 1.00526 1.00114 1.00661 1.00193 1.00348 1.00223 1.00303 0.999731 1.00146 0.999928 1.00193 1.00265 1.00244 1.00441 1.00364 1.00146 1.00206 1.00193 1.00348 1.00244 1.00435 1.00364 1.00667 0.999928 1.00193 0.999918 1.00223 1.00441 1.00364 1.00242 1.00254 1.00193 1.00348 1.00223 1.00303 1.00364 1.00667 1.00254 1.00988 1.00178 1.00227 1.00526 1.00414 1.00206 1.00257 1.00348 1.00491 1.00227 1.00236 1.00414 1.00744 1.00257 1.00209 1.00491 1.00446 1.00526 1.00414 1.00661 1.00615 1.00348 1.00491 1.00303 1.00523 1.00414 1.00744 1.00615 1.01188 1.00491 1.00446 1.00523 1.01474 1.00206 1.00257 1.00348 1.00491 1.00435 1.00569 1.00667 1.00567 1.00257 1.00209 1.00491 1.00446 1.00569 1.00656 1.00567 1.00446 1.00348 1.00491 1.00303 1.00523 1.00667 1.00567 1.00988 1.01065 1.00491 1.00446 1.00523 1.01474 1.00567 1.00446 1.01065 1.00918 1.00265 1.00244 1.00441 1.00364 1.00165 1.00301 1.00489 1.00545 1.00244 1.00435 1.00364 1.00667 1.00301 1.00569 1.00545 1.00567 1.00441 1.00364 1.00242 1.00254 1.00489 1.00545 1.00738 1.00902 1.00364 1.00667 1.00254 1.00988 1.00545 1.00567 1.00902 1.01065 1.00165 1.00301 1.00489 1.00545 1.00467 1.00227 1.00601 1.00405 1.00301 1.00569 1.00545 1.00567 1.00227 1.00656 1.00405 1.00446 1.00489 1.00545 1.00738 1.00902 1.00601 1.00405 1.01298 1.00674 1.00545 1.00567 1.00902 1.01065 1.00405 1.00446 1.00674 1.00918 0.997684 1.00154 0.999731 1.00146 0.998876 1.0006 1.00061 1.00102 1.00154 1.00178 1.00146 1.00206 1.0006 1.00227 1.00102 1.00257 0.999731 1.00146 1.00265 1.00244 1.00061 1.00102 1.00165 1.00301 1.00146 1.00206 1.00244 1.00435 1.00102 1.00257 1.00301 1.00569 0.998876 1.0006 1.00061 1.00102 0.998807 0.999656 1.00019 1.00041 1.0006 1.00227 1.00102 1.00257 0.999656 1.00236 1.00041 1.00209 1.00061 1.00102 1.00165 1.00301 1.00019 1.00041 1.00467 1.00227 1.00102 1.00257 1.00301 1.00569 1.00041 1.00209 1.00227 1.00656 0.997446 1.0001 0.997307 1.00041 1.00059 1.002 1.00118 1.00219 1.0001 1.00209 1.00041 1.00421 1.002 1.0035 1.00219 1.00614 0.997307 1.00041 0.993922 1.00104 1.00118 1.00219 1.00096 1.00203 1.00041 1.00421 1.00104 1.00688 1.00219 1.00614 1.00203 1.00599 1.00059 1.002 1.00118 1.00219 1.00064 1.00284 1.00339 1.00487 1.002 1.0035 1.00219 1.00614 1.00284 1.00284 1.00487 1.00503 1.00118 1.00219 1.00096 1.00203 1.00339 1.00487 1.00907 1.00848 1.00219 1.00614 1.00203 1.00599 1.00487 1.00503 1.00848 1.00883 1.00209 1.0024 1.00421 1.00721 1.0035 1.00402 1.00614 1.00571 1.0024 1.00317 1.00721 1.00873 1.00402 1.00251 1.00571 1.00509 1.00421 1.00721 1.00688 1.00917 1.00614 1.00571 1.00599 1.01235 1.00721 1.00873 1.00917 1.01057 1.00571 1.00509 1.01235 1.00714 1.0035 1.00402 1.00614 1.00571 1.00284 1.00557 1.00503 1.00601 1.00402 1.00251 1.00571 1.00509 1.00557 1.0063 1.00601 1.00876 1.00614 1.00571 1.00599 1.01235 1.00503 1.00601 1.00883 1.00903 1.00571 1.00509 1.01235 1.00714 1.00601 1.00876 1.00903 1.00642 1.00064 1.00284 1.00339 1.00487 1.00182 1.00465 1.00467 1.00748 1.00284 1.00284 1.00487 1.00503 1.00465 1.00557 1.00748 1.00601 1.00339 1.00487 1.00907 1.00848 1.00467 1.00748 1.0099 1.00735 1.00487 1.00503 1.00848 1.00883 1.00748 1.00601 1.00735 1.00903 1.00182 1.00465 1.00467 1.00748 1.00321 1.00417 1.00466 1.00469 1.00465 1.00557 1.00748 1.00601 1.00417 1.0063 1.00469 1.00876 1.00467 1.00748 1.0099 1.00735 1.00466 1.00469 1.01508 1.0116 1.00748 1.00601 1.00735 1.00903 1.00469 1.00876 1.0116 1.00642 0.997446 1.0001 1.00059 1.002 0.999057 1.00037 1.00002 1.00214 1.0001 1.00209 1.002 1.0035 1.00037 1.0024 1.00214 1.00402 1.00059 1.002 1.00064 1.00284 1.00002 1.00214 1.00182 1.00465 1.002 1.0035 1.00284 1.00284 1.00214 1.00402 1.00465 1.00557 0.999057 1.00037 1.00002 1.00214 0.998807 1.00295 1.00119 1.00009 1.00037 1.0024 1.00214 1.00402 1.00295 1.00317 1.00009 1.00251 1.00002 1.00214 1.00182 1.00465 1.00119 1.00009 1.00321 1.00417 1.00214 1.00402 1.00465 1.00557 1.00009 1.00251 1.00417 1.0063 0.994223 0.993139 0.982987 0.989282 0.994116 0.991491 0.991048 0.984333 0.993139 0.993412 0.989282 0.989493 0.991491 0.991367 0.984333 0.988432 0.982987 0.989282 0.983323 0.969054 0.991048 0.984333 0.978947 0.983037 0.989282 0.989493 0.969054 0.985797 0.984333 0.988432 0.983037 0.976708 0.994116 0.991491 0.991048 0.984333 0.99098 0.991205 0.987009 0.98801 0.991491 0.991367 0.984333 0.988432 0.991205 0.994095 0.98801 0.993194 0.991048 0.984333 0.978947 0.983037 0.987009 0.98801 0.978541 0.984613 0.984333 0.988432 0.983037 0.976708 0.98801 0.993194 0.984613 0.97851 0.993412 0.996319 0.989493 0.994221 0.991367 0.996669 0.988432 0.988586 0.996319 0.998928 0.994221 0.997067 0.996669 0.995148 0.988586 0.992849 0.989493 0.994221 0.985797 0.990628 0.988432 0.988586 0.976708 0.989779 0.994221 0.997067 0.990628 0.993234 0.988586 0.992849 0.989779 0.992596 0.991367 0.996669 0.988432 0.988586 0.994095 0.995107 0.993194 0.987422 0.996669 0.995148 0.988586 0.992849 0.995107 0.995915 0.987422 0.993464 0.988432 0.988586 0.976708 0.989779 0.993194 0.987422 0.97851 0.984758 0.988586 0.992849 0.989779 0.992596 0.987422 0.993464 0.984758 0.989426 0.99098 0.991205 0.987009 0.98801 0.995936 0.993719 0.99357 0.993968 0.991205 0.994095 0.98801 0.993194 0.993719 0.995107 0.993968 0.987422 0.987009 0.98801 0.978541 0.984613 0.99357 0.993968 0.98751 0.988572 0.98801 0.993194 0.984613 0.97851 0.993968 0.987422 0.988572 0.984758 0.995936 0.993719 0.99357 0.993968 0.998365 0.997004 0.996231 0.995301 0.993719 0.995107 0.993968 0.987422 0.997004 0.995915 0.995301 0.993464 0.99357 0.993968 0.98751 0.988572 0.996231 0.995301 0.994533 0.991924 0.993968 0.987422 0.988572 0.984758 0.995301 0.993464 0.991924 0.989426 0.994223 0.993139 0.994116 0.991491 0.995942 0.996202 0.996124 0.993367 0.993139 0.993412 0.991491 0.991367 0.996202 0.996319 0.993367 0.996669 0.994116 0.991491 0.99098 0.991205 0.996124 0.993367 0.995936 0.993719 0.991491 0.991367 0.991205 0.994095 0.993367 0.996669 0.993719 0.995107 0.995942 0.996202 0.996124 0.993367 0.998807 0.996077 0.99725 0.997778 0.996202 0.996319 0.993367 0.996669 0.996077 0.998928 0.997778 0.995148 0.996124 0.993367 0.995936 0.993719 0.99725 0.997778 0.998365 0.997004 0.993367 0.996669 0.993719 0.995107 0.997778 0.995148 0.997004 0.995915 0.993448 0.993765 0.988181 0.985797 0.989983 0.991431 0.990363 0.988808 0.993765 0.996445 0.985797 0.99085 0.991431 0.9906 0.988808 0.993426 0.988181 0.985797 0.973273 0.985049 0.990363 0.988808 0.980483 0.977419 0.985797 0.99085 0.985049 0.984716 0.988808 0.993426 0.977419 0.985854 0.989983 0.991431 0.990363 0.988808 0.99427 0.991334 0.989323 0.987819 0.991431 0.9906 0.988808 0.993426 0.991334 0.989328 0.987819 0.985091 0.990363 0.988808 0.980483 0.977419 0.989323 0.987819 0.977724 0.982726 0.988808 0.993426 0.977419 0.985854 0.987819 0.985091 0.982726 0.984305 0.996445 0.99627 0.99085 0.990994 0.9906 0.994916 0.993426 0.990224 0.99627 0.997887 0.990994 0.996114 0.994916 0.995684 0.990224 0.993134 0.99085 0.990994 0.984716 0.988208 0.993426 0.990224 0.985854 0.985659 0.990994 0.996114 0.988208 0.995693 0.990224 0.993134 0.985659 0.989956 0.9906 0.994916 0.993426 0.990224 0.989328 0.996486 0.985091 0.988558 0.994916 0.995684 0.990224 0.993134 0.996486 0.996334 0.988558 0.992537 0.993426 0.990224 0.985854 0.985659 0.985091 0.988558 0.984305 0.990977 0.990224 0.993134 0.985659 0.989956 0.988558 0.992537 0.990977 0.993123 0.99427 0.991334 0.989323 0.987819 0.996815 0.993591 0.990088 0.991471 0.991334 0.989328 0.987819 0.985091 0.993591 0.996486 0.991471 0.988558 0.989323 0.987819 0.977724 0.982726 0.990088 0.991471 0.986338 0.982398 0.987819 0.985091 0.982726 0.984305 0.991471 0.988558 0.982398 0.990977 0.996815 0.993591 0.990088 0.991471 0.996944 0.996822 0.995223 0.992895 0.993591 0.996486 0.991471 0.988558 0.996822 0.996334 0.992895 0.992537 0.990088 0.991471 0.986338 0.982398 0.995223 0.992895 0.99405 0.992208 0.991471 0.988558 0.982398 0.990977 0.992895 0.992537 0.992208 0.993123 0.993448 0.993765 0.989983 0.991431 0.996977 0.997582 0.994918 0.99293 0.993765 0.996445 0.991431 0.9906 0.997582 0.99627 0.99293 0.994916 0.989983 0.991431 0.99427 0.991334 0.994918 0.99293 0.996815 0.993591 0.991431 0.9906 0.991334 0.989328 0.99293 0.994916 0.993591 0.996486 0.996977 0.997582 0.994918 0.99293 0.998807 0.997141 0.997953 0.996143 0.997582 0.99627 0.99293 0.994916 0.997141 0.997887 0.996143 0.995684 0.994918 0.99293 0.996815 0.993591 0.997953 0.996143 0.996944 0.996822 0.99293 0.994916 0.993591 0.996486 0.996143 0.995684 0.996822 0.996334 0.997806 1.00022 0.996222 1.00081 1.00067 1.00087 1.00134 1.00258 1.00022 1.00312 1.00081 1.00504 1.00087 1.00326 1.00258 1.0041 0.996222 1.00081 0.997098 1.00055 1.00134 1.00258 1.00084 1.00271 1.00081 1.00504 1.00055 1.00684 1.00258 1.0041 1.00271 1.00882 1.00067 1.00087 1.00134 1.00258 1.00173 1.00245 1.00415 1.00362 1.00087 1.00326 1.00258 1.0041 1.00245 1.00576 1.00362 1.00759 1.00134 1.00258 1.00084 1.00271 1.00415 1.00362 1.00469 1.00651 1.00258 1.0041 1.00271 1.00882 1.00362 1.00759 1.00651 1.00754 1.00312 1.00291 1.00504 1.00502 1.00326 1.00412 1.0041 1.00451 1.00291 1.00334 1.00502 1.00786 1.00412 1.00387 1.00451 1.00453 1.00504 1.00502 1.00684 1.00905 1.0041 1.00451 1.00882 1.01407 1.00502 1.00786 1.00905 1.01255 1.00451 1.00453 1.01407 1.01499 1.00326 1.00412 1.0041 1.00451 1.00576 1.00658 1.00759 1.00717 1.00412 1.00387 1.00451 1.00453 1.00658 1.00789 1.00717 1.0078 1.0041 1.00451 1.00882 1.01407 1.00759 1.00717 1.00754 1.01254 1.00451 1.00453 1.01407 1.01499 1.00717 1.0078 1.01254 1.00648 1.00173 1.00245 1.00415 1.00362 1.00117 1.00454 1.00611 1.00351 1.00245 1.00576 1.00362 1.00759 1.00454 1.00658 1.00351 1.00717 1.00415 1.00362 1.00469 1.00651 1.00611 1.00351 1.00777 1.00901 1.00362 1.00759 1.00651 1.00754 1.00351 1.00717 1.00901 1.01254 1.00117 1.00454 1.00611 1.00351 1.00323 1.00244 1.00753 1.0069 1.00454 1.00658 1.00351 1.00717 1.00244 1.00789 1.0069 1.0078 1.00611 1.00351 1.00777 1.00901 1.00753 1.0069 1.01145 1.01037 1.00351 1.00717 1.00901 1.01254 1.0069 1.0078 1.01037 1.00648 0.997806 1.00022 1.00067 1.00087 0.998053 1.00047 0.999848 1.00115 1.00022 1.00312 1.00087 1.00326 1.00047 1.00291 1.00115 1.00412 1.00067 1.00087 1.00173 1.00245 0.999848 1.00115 1.00117 1.00454 1.00087 1.00326 1.00245 1.00576 1.00115 1.00412 1.00454 1.00658 0.998053 1.00047 0.999848 1.00115 0.998807 1.00158 0.999858 1.00024 1.00047 1.00291 1.00115 1.00412 1.00158 1.00334 1.00024 1.00387 0.999848 1.00115 1.00117 1.00454 0.999858 1.00024 1.00323 1.00244 1.00115 1.00412 1.00454 1.00658 1.00024 1.00387 1.00244 1.00789 1.00254 1.00246 1.00682 1.00698 1.00292 1.00471 1.00616 1.00551 1.00246 1.00157 1.00698 1.00336 1.00471 1.00382 1.00551 1.00503 1.00682 1.00698 1.0081 1.01086 1.00616 1.00551 1.01113 1.00947 1.00698 1.00336 1.01086 1.00454 1.00551 1.00503 1.00947 1.0058 1.00292 1.00471 1.00616 1.00551 1.00639 1.00702 1.00842 1.00857 1.00471 1.00382 1.00551 1.00503 1.00702 1.00495 1.00857 1.00606 1.00616 1.00551 1.01113 1.00947 1.00842 1.00857 1.01192 1.01104 1.00551 1.00503 1.00947 1.0058 1.00857 1.00606 1.01104 1.00673 1.00157 0.999409 1.00336 1.00006 1.00382 1.00165 1.00503 1.0039 0.999409 0.99727 1.00006 0.99824 1.00165 1.00024 1.0039 1.00179 1.00336 1.00006 1.00454 0.999815 1.00503 1.0039 1.0058 1.00459 1.00006 0.99824 0.999815 0.993325 1.0039 1.00179 1.00459 1.00145 1.00382 1.00165 1.00503 1.0039 1.00495 1.00134 1.00606 1.00532 1.00165 1.00024 1.0039 1.00179 1.00134 1.00138 1.00532 1.0037 1.00503 1.0039 1.0058 1.00459 1.00606 1.00532 1.00673 1.00467 1.0039 1.00179 1.00459 1.00145 1.00532 1.0037 1.00467 1.00579 1.00639 1.00702 1.00842 1.00857 1.00582 1.00515 1.0085 1.00548 1.00702 1.00495 1.00857 1.00606 1.00515 1.00134 1.00548 1.00532 1.00842 1.00857 1.01192 1.01104 1.0085 1.00548 1.01323 1.00663 1.00857 1.00606 1.01104 1.00673 1.00548 1.00532 1.00663 1.00467 1.00582 1.00515 1.0085 1.00548 1.00268 1.00337 1.00542 1.00555 1.00515 1.00134 1.00548 1.00532 1.00337 1.00138 1.00555 1.0037 1.0085 1.00548 1.01323 1.00663 1.00542 1.00555 1.01404 1.00815 1.00548 1.00532 1.00663 1.00467 1.00555 1.0037 1.00815 1.00579 1.00254 1.00246 1.00292 1.00471 1.00155 1.00066 1.00333 1.00329 1.00246 1.00157 1.00471 1.00382 1.00066 0.999409 1.00329 1.00165 1.00292 1.00471 1.00639 1.00702 1.00333 1.00329 1.00582 1.00515 1.00471 1.00382 1.00702 1.00495 1.00329 1.00165 1.00515 1.00134 1.00155 1.00066 1.00333 1.00329 0.998807 0.999751 1.00329 1.00145 1.00066 0.999409 1.00329 1.00165 0.999751 0.99727 1.00145 1.00024 1.00333 1.00329 1.00582 1.00515 1.00329 1.00145 1.00268 1.00337 1.00329 1.00165 1.00515 1.00134 1.00145 1.00024 1.00337 1.00138 1.00254 1.00292 1.00682 1.00616 1.00156 1.00025 1.00665 1.00434 1.00292 1.00639 1.00616 1.00842 1.00025 1.00552 1.00434 1.00771 1.00682 1.00616 1.0081 1.01113 1.00665 1.00434 1.00623 1.00485 1.00616 1.00842 1.01113 1.01192 1.00434 1.00771 1.00485 1.0032 1.00156 1.00025 1.00665 1.00434 1.00137 1.00201 1.00388 1.00597 1.00025 1.00552 1.00434 1.00771 1.00201 1.00447 1.00597 1.00796 1.00665 1.00434 1.00623 1.00485 1.00388 1.00597 1.00509 1.00744 1.00434 1.00771 1.00485 1.0032 1.00597 1.00796 1.00744 1.00815 1.00639 1.00582 1.00842 1.0085 1.00552 1.00296 1.00771 1.00487 1.00582 1.00268 1.0085 1.00542 1.00296 1.00351 1.00487 1.00706 1.00842 1.0085 1.01192 1.01323 1.00771 1.00487 1.0032 1.01059 1.0085 1.00542 1.01323 1.01404 1.00487 1.00706 1.01059 1.01161 1.00552 1.00296 1.00771 1.00487 1.00447 1.00249 1.00796 1.00575 1.00296 1.00351 1.00487 1.00706 1.00249 1.00064 1.00575 1.00319 1.00771 1.00487 1.0032 1.01059 1.00796 1.00575 1.00815 1.01171 1.00487 1.00706 1.01059 1.01161 1.00575 1.00319 1.01171 1.00423 1.00137 1.00201 1.00388 1.00597 0.999099 1.00146 0.999272 1.00285 1.00201 1.00447 1.00597 1.00796 1.00146 1.00249 1.00285 1.00575 1.00388 1.00597 1.00509 1.00744 0.999272 1.00285 0.999753 1.00425 1.00597 1.00796 1.00744 1.00815 1.00285 1.00575 1.00425 1.01171 0.999099 1.00146 0.999272 1.00285 0.998365 0.99916 0.996231 0.999874 1.00146 1.00249 1.00285 1.00575 0.99916 1.00064 0.999874 1.00319 0.999272 1.00285 0.999753 1.00425 0.996231 0.999874 0.994533 1.00002 1.00285 1.00575 1.00425 1.01171 0.999874 1.00319 1.00002 1.00423 1.00254 1.00292 1.00156 1.00025 1.00155 1.00333 0.999859 1.00241 1.00292 1.00639 1.00025 1.00552 1.00333 1.00582 1.00241 1.00296 1.00156 1.00025 1.00137 1.00201 0.999859 1.00241 0.999099 1.00146 1.00025 1.00552 1.00201 1.00447 1.00241 1.00296 1.00146 1.00249 1.00155 1.00333 0.999859 1.00241 0.998807 1.00329 0.99725 0.999227 1.00333 1.00582 1.00241 1.00296 1.00329 1.00268 0.999227 1.00351 0.999859 1.00241 0.999099 1.00146 0.99725 0.999227 0.998365 0.99916 1.00241 1.00296 1.00146 1.00249 0.999227 1.00351 0.99916 1.00064 0.997446 1.00059 0.997307 1.00118 1.00076 1.00194 1.00091 1.00311 1.00059 1.00064 1.00118 1.00339 1.00194 1.00424 1.00311 1.00557 0.997307 1.00118 0.993922 1.00096 1.00091 1.00311 0.999824 1.00306 1.00118 1.00339 1.00096 1.00907 1.00311 1.00557 1.00306 1.00451 1.00076 1.00194 1.00091 1.00311 1.00209 1.00182 1.00386 1.00498 1.00194 1.00424 1.00311 1.00557 1.00182 1.00441 1.00498 1.00659 1.00091 1.00311 0.999824 1.00306 1.00386 1.00498 1.00269 1.00715 1.00311 1.00557 1.00306 1.00451 1.00498 1.00659 1.00715 1.01302 1.00064 1.00182 1.00339 1.00467 1.00424 1.00234 1.00557 1.00795 1.00182 1.00321 1.00467 1.00466 1.00234 1.0041 1.00795 1.00509 1.00339 1.00467 1.00907 1.0099 1.00557 1.00795 1.00451 1.014 1.00467 1.00466 1.0099 1.01508 1.00795 1.00509 1.014 1.00835 1.00424 1.00234 1.00557 1.00795 1.00441 1.00362 1.00659 1.00441 1.00234 1.0041 1.00795 1.00509 1.00362 1.00414 1.00441 1.00688 1.00557 1.00795 1.00451 1.014 1.00659 1.00441 1.01302 1.01114 1.00795 1.00509 1.014 1.00835 1.00441 1.00688 1.01114 1.00749 1.00209 1.00182 1.00386 1.00498 1.00317 1.0044 1.00425 1.00502 1.00182 1.00441 1.00498 1.00659 1.0044 1.00362 1.00502 1.00441 1.00386 1.00498 1.00269 1.00715 1.00425 1.00502 1.01148 1.00768 1.00498 1.00659 1.00715 1.01302 1.00502 1.00441 1.00768 1.01114 1.00317 1.0044 1.00425 1.00502 1.00334 1.00515 1.00786 1.00781 1.0044 1.00362 1.00502 1.00441 1.00515 1.00414 1.00781 1.00688 1.00425 1.00502 1.01148 1.00768 1.00786 1.00781 1.01255 1.01282 1.00502 1.00441 1.00768 1.01114 1.00781 1.00688 1.01282 1.00749 0.997446 1.00059 1.00076 1.00194 0.999057 1.00002 1.00162 1.00252 1.00059 1.00064 1.00194 1.00424 1.00002 1.00182 1.00252 1.00234 1.00076 1.00194 1.00209 1.00182 1.00162 1.00252 1.00317 1.0044 1.00194 1.00424 1.00182 1.00441 1.00252 1.00234 1.0044 1.00362 0.999057 1.00002 1.00162 1.00252 0.998807 1.00119 1.00158 1.00306 1.00002 1.00182 1.00252 1.00234 1.00119 1.00321 1.00306 1.0041 1.00162 1.00252 1.00317 1.0044 1.00158 1.00306 1.00334 1.00515 1.00252 1.00234 1.0044 1.00362 1.00306 1.0041 1.00515 1.00414 0.99727 0.999857 0.99824 1.00017 1.00024 1.00093 1.00179 1.00346 0.999857 1.00224 1.00017 1.00329 1.00093 1.00043 1.00346 1.00372 0.99824 1.00017 0.993325 0.999809 1.00179 1.00346 1.00145 1.00177 1.00017 1.00329 0.999809 1.0013 1.00346 1.00372 1.00177 1.00073 1.00024 1.00093 1.00179 1.00346 1.00138 1.0005 1.0037 1.00216 1.00093 1.00043 1.00346 1.00372 1.0005 1.0002 1.00216 1.00443 1.00179 1.00346 1.00145 1.00177 1.0037 1.00216 1.00579 1.00561 1.00346 1.00372 1.00177 1.00073 1.00216 1.00443 1.00561 1.00865 1.00317 1.00669 1.00873 1.0076 1.0024 1.00353 1.00512 1.0078 1.00669 1.00733 1.0076 1.01062 1.00353 1.0064 1.0078 1.00787 1.00873 1.0076 1.01057 1.01116 1.00512 1.0078 1.00797 1.01232 1.0076 1.01062 1.01116 1.01222 1.0078 1.00787 1.01232 1.01095 1.0024 1.00353 1.00512 1.0078 1.00224 1.00043 1.00329 1.00372 1.00353 1.0064 1.0078 1.00787 1.00043 1.0002 1.00372 1.00443 1.00512 1.0078 1.00797 1.01232 1.00329 1.00372 1.0013 1.00073 1.0078 1.00787 1.01232 1.01095 1.00372 1.00443 1.00073 1.00865 1.00268 1.00337 1.00542 1.00555 1.00519 1.00404 1.00717 1.0057 1.00337 1.00138 1.00555 1.0037 1.00404 1.0005 1.0057 1.00216 1.00542 1.00555 1.01404 1.00815 1.00717 1.0057 1.00812 1.01086 1.00555 1.0037 1.00815 1.00579 1.0057 1.00216 1.01086 1.00561 1.00519 1.00404 1.00717 1.0057 1.00733 1.0064 1.01062 1.00787 1.00404 1.0005 1.0057 1.00216 1.0064 1.0002 1.00787 1.00443 1.00717 1.0057 1.00812 1.01086 1.01062 1.00787 1.01222 1.01095 1.0057 1.00216 1.01086 1.00561 1.00787 1.00443 1.01095 1.00865 0.998807 0.999751 1.00329 1.00145 1.00295 1.00045 1.00525 1.00242 0.999751 0.99727 1.00145 1.00024 1.00045 0.999857 1.00242 1.00093 1.00329 1.00145 1.00268 1.00337 1.00525 1.00242 1.00519 1.00404 1.00145 1.00024 1.00337 1.00138 1.00242 1.00093 1.00404 1.0005 1.00295 1.00045 1.00525 1.00242 1.00317 1.0024 1.00669 1.00353 1.00045 0.999857 1.00242 1.00093 1.0024 1.00224 1.00353 1.00043 1.00525 1.00242 1.00519 1.00404 1.00669 1.00353 1.00733 1.0064 1.00242 1.00093 1.00404 1.0005 1.00353 1.00043 1.0064 1.0002 1.00258 1.00158 1.00406 1.00548 1.00065 1.00302 1.00086 1.00446 1.00158 1.00378 1.00548 1.00653 1.00302 1.00425 1.00446 1.00526 1.00406 1.00548 1.00646 1.00786 1.00086 1.00446 1.00074 1.00479 1.00548 1.00653 1.00786 1.00435 1.00446 1.00526 1.00479 1.00827 1.00065 1.00302 1.00086 1.00446 0.997684 1.00154 0.996111 1.00153 1.00302 1.00425 1.00446 1.00526 1.00154 1.00178 1.00153 1.00526 1.00086 1.00446 1.00074 1.00479 0.996111 1.00153 0.995319 1.00114 1.00446 1.00526 1.00479 1.00827 1.00153 1.00526 1.00114 1.00661 1.00258 1.00349 1.00406 1.00467 1.00158 1.00305 1.00548 1.00633 1.00349 1.00254 1.00467 1.00682 1.00305 1.00173 1.00633 1.00669 1.00406 1.00467 1.00646 1.0153 1.00548 1.00633 1.00786 1.00473 1.00467 1.00682 1.0153 1.0081 1.00633 1.00669 1.00473 1.00684 1.00158 1.00305 1.00548 1.00633 1.00378 1.00391 1.00653 1.00625 1.00305 1.00173 1.00633 1.00669 1.00391 1.00485 1.00625 1.0057 1.00548 1.00633 1.00786 1.00473 1.00653 1.00625 1.00435 1.00969 1.00633 1.00669 1.00473 1.00684 1.00625 1.0057 1.00969 1.01169 1.00378 1.00391 1.00653 1.00625 1.00425 1.00437 1.00526 1.00764 1.00391 1.00485 1.00