# vtk DataFile Version 3.0
#This file was generated by the deal.II library on 2025/4/17 at 14:10:15
ASCII
DATASET UNSTRUCTURED_GRID

POINTS 8192 double
-0.353553 0 -0.353553
-0.461975 -0.00170805 -0.297832
-0.528825 -0.010102 -0.528825
-0.639357 -0.00993414 -0.423426
-0.414368 -0.117341 -0.299539
-0.507884 -0.105805 -0.257867
-0.591321 -0.165856 -0.431564
-0.677161 -0.144542 -0.355712
-0.461975 -0.00170805 -0.297832
-0.569036 0 -0.235702
-0.639357 -0.00993414 -0.423426
-0.743863 -0.0057014 -0.311458
-0.507884 -0.105805 -0.257867
-0.600493 -0.0913962 -0.212053
-0.677161 -0.144542 -0.355712
-0.759377 -0.120685 -0.276479
-0.528825 -0.010102 -0.528825
-0.639357 -0.00993414 -0.423426
-0.707107 0 -0.707107
-0.821585 -0.00287597 -0.548035
-0.591321 -0.165856 -0.431564
-0.677161 -0.144542 -0.355712
-0.773861 -0.202678 -0.563267
-0.851724 -0.174066 -0.451253
-0.639357 -0.00993414 -0.423426
-0.743863 -0.0057014 -0.311458
-0.821585 -0.00287597 -0.548035
-0.92388 0 -0.382683
-0.677161 -0.144542 -0.355712
-0.759377 -0.120685 -0.276479
-0.851724 -0.174066 -0.451253
-0.922841 -0.142853 -0.337062
-0.414368 -0.117341 -0.299539
-0.507884 -0.105805 -0.257867
-0.591321 -0.165856 -0.431564
-0.677161 -0.144542 -0.355712
-0.471405 -0.235702 -0.235702
-0.550714 -0.211222 -0.211222
-0.645195 -0.320116 -0.320116
-0.708809 -0.279139 -0.279139
-0.507884 -0.105805 -0.257867
-0.600493 -0.0913962 -0.212053
-0.677161 -0.144542 -0.355712
-0.759377 -0.120685 -0.276479
-0.550714 -0.211222 -0.211222
-0.629412 -0.184291 -0.184291
-0.708809 -0.279139 -0.279139
-0.770387 -0.236627 -0.236627
-0.591321 -0.165856 -0.431564
-0.677161 -0.144542 -0.355712
-0.773861 -0.202678 -0.563267
-0.851724 -0.174066 -0.451253
-0.645195 -0.320116 -0.320116
-0.708809 -0.279139 -0.279139
-0.825042 -0.399565 -0.399565
-0.871622 -0.342817 -0.342817
-0.677161 -0.144542 -0.355712
-0.759377 -0.120685 -0.276479
-0.851724 -0.174066 -0.451253
-0.922841 -0.142853 -0.337062
-0.708809 -0.279139 -0.279139
-0.770387 -0.236627 -0.236627
-0.871622 -0.342817 -0.342817
-0.914903 -0.285441 -0.285441
-0.569036 0 -0.235702
-0.536881 -0.00244317 -0.115851
-0.743863 -0.0057014 -0.311458
-0.749363 -0.0104556 -0.158964
-0.600493 -0.0913962 -0.212053
-0.570402 -0.105896 -0.105896
-0.759377 -0.120685 -0.276479
-0.757595 -0.142384 -0.142384
-0.536881 -0.00244317 -0.115851
-0.5 0 0
-0.749363 -0.0104556 -0.158964
-0.745684 -0.00994129 -0.00994129
-0.570402 -0.105896 -0.105896
-0.536881 -0.115851 -0.00244317
-0.757595 -0.142384 -0.142384
-0.749363 -0.158964 -0.0104556
-0.743863 -0.0057014 -0.311458
-0.749363 -0.0104556 -0.158964
-0.92388 0 -0.382683
-0.969401 -0.00332978 -0.19064
-0.759377 -0.120685 -0.276479
-0.757595 -0.142384 -0.142384
-0.922841 -0.142853 -0.337062
-0.95124 -0.169911 -0.169911
-0.749363 -0.0104556 -0.158964
-0.745684 -0.00994129 -0.00994129
-0.969401 -0.00332978 -0.19064
-1 0 0
-0.757595 -0.142384 -0.142384
-0.749363 -0.158964 -0.0104556
-0.95124 -0.169911 -0.169911
-0.969401 -0.19064 -0.00332978
-0.600493 -0.0913962 -0.212053
-0.570402 -0.105896 -0.105896
-0.759377 -0.120685 -0.276479
-0.757595 -0.142384 -0.142384
-0.629412 -0.184291 -0.184291
-0.600493 -0.212053 -0.0913962
-0.770387 -0.236627 -0.236627
-0.759377 -0.276479 -0.120685
-0.570402 -0.105896 -0.105896
-0.536881 -0.115851 -0.00244317
-0.757595 -0.142384 -0.142384
-0.749363 -0.158964 -0.0104556
-0.600493 -0.212053 -0.0913962
-0.569036 -0.235702 0
-0.759377 -0.276479 -0.120685
-0.743863 -0.311458 -0.0057014
-0.759377 -0.120685 -0.276479
-0.757595 -0.142384 -0.142384
-0.922841 -0.142853 -0.337062
-0.95124 -0.169911 -0.169911
-0.770387 -0.236627 -0.236627
-0.759377 -0.276479 -0.120685
-0.914903 -0.285441 -0.285441
-0.922841 -0.337062 -0.142853
-0.757595 -0.142384 -0.142384
-0.749363 -0.158964 -0.0104556
-0.95124 -0.169911 -0.169911
-0.969401 -0.19064 -0.00332978
-0.759377 -0.276479 -0.120685
-0.743863 -0.311458 -0.0057014
-0.922841 -0.337062 -0.142853
-0.92388 -0.382683 0
-0.471405 -0.235702 -0.235702
-0.550714 -0.211222 -0.211222
-0.645195 -0.320116 -0.320116
-0.708809 -0.279139 -0.279139
-0.414368 -0.299539 -0.117341
-0.507884 -0.257867 -0.105805
-0.591321 -0.431564 -0.165856
-0.677161 -0.355712 -0.144542
-0.550714 -0.211222 -0.211222
-0.629412 -0.184291 -0.184291
-0.708809 -0.279139 -0.279139
-0.770387 -0.236627 -0.236627
-0.507884 -0.257867 -0.105805
-0.600493 -0.212053 -0.0913962
-0.677161 -0.355712 -0.144542
-0.759377 -0.276479 -0.120685
-0.645195 -0.320116 -0.320116
-0.708809 -0.279139 -0.279139
-0.825042 -0.399565 -0.399565
-0.871622 -0.342817 -0.342817
-0.591321 -0.431564 -0.165856
-0.677161 -0.355712 -0.144542
-0.773861 -0.563267 -0.202678
-0.851724 -0.451253 -0.174066
-0.708809 -0.279139 -0.279139
-0.770387 -0.236627 -0.236627
-0.871622 -0.342817 -0.342817
-0.914903 -0.285441 -0.285441
-0.677161 -0.355712 -0.144542
-0.759377 -0.276479 -0.120685
-0.851724 -0.451253 -0.174066
-0.922841 -0.337062 -0.142853
-0.414368 -0.299539 -0.117341
-0.507884 -0.257867 -0.105805
-0.591321 -0.431564 -0.165856
-0.677161 -0.355712 -0.144542
-0.353553 -0.353553 0
-0.461975 -0.297832 -0.00170805
-0.528825 -0.528825 -0.010102
-0.639357 -0.423426 -0.00993414
-0.507884 -0.257867 -0.105805
-0.600493 -0.212053 -0.0913962
-0.677161 -0.355712 -0.144542
-0.759377 -0.276479 -0.120685
-0.461975 -0.297832 -0.00170805
-0.569036 -0.235702 0
-0.639357 -0.423426 -0.00993414
-0.743863 -0.311458 -0.0057014
-0.591321 -0.431564 -0.165856
-0.677161 -0.355712 -0.144542
-0.773861 -0.563267 -0.202678
-0.851724 -0.451253 -0.174066
-0.528825 -0.528825 -0.010102
-0.639357 -0.423426 -0.00993414
-0.707107 -0.707107 0
-0.821585 -0.548035 -0.00287597
-0.677161 -0.355712 -0.144542
-0.759377 -0.276479 -0.120685
-0.851724 -0.451253 -0.174066
-0.922841 -0.337062 -0.142853
-0.639357 -0.423426 -0.00993414
-0.743863 -0.311458 -0.0057014
-0.821585 -0.548035 -0.00287597
-0.92388 -0.382683 0
-0.353553 0 -0.353553
-0.461975 -0.00170805 -0.297832
-0.414368 -0.117341 -0.299539
-0.507884 -0.105805 -0.257867
-0.174134 -0.0144999 -0.174134
-0.353695 -0.0141721 -0.152389
-0.294409 -0.154874 -0.154874
-0.432005 -0.134141 -0.134141
-0.461975 -0.00170805 -0.297832
-0.569036 0 -0.235702
-0.507884 -0.105805 -0.257867
-0.600493 -0.0913962 -0.212053
-0.353695 -0.0141721 -0.152389
-0.536881 -0.00244317 -0.115851
-0.432005 -0.134141 -0.134141
-0.570402 -0.105896 -0.105896
-0.414368 -0.117341 -0.299539
-0.507884 -0.105805 -0.257867
-0.471405 -0.235702 -0.235702
-0.550714 -0.211222 -0.211222
-0.294409 -0.154874 -0.154874
-0.432005 -0.134141 -0.134141
-0.414368 -0.299539 -0.117341
-0.507884 -0.257867 -0.105805
-0.507884 -0.105805 -0.257867
-0.600493 -0.0913962 -0.212053
-0.550714 -0.211222 -0.211222
-0.629412 -0.184291 -0.184291
-0.432005 -0.134141 -0.134141
-0.570402 -0.105896 -0.105896
-0.507884 -0.257867 -0.105805
-0.600493 -0.212053 -0.0913962
-0.174134 -0.0144999 -0.174134
-0.353695 -0.0141721 -0.152389
-0.294409 -0.154874 -0.154874
-0.432005 -0.134141 -0.134141
0 0 0
-0.243796 -0.0126275 -0.0126275
-0.174134 -0.174134 -0.0144999
-0.353695 -0.152389 -0.0141721
-0.353695 -0.0141721 -0.152389
-0.536881 -0.00244317 -0.115851
-0.432005 -0.134141 -0.134141
-0.570402 -0.105896 -0.105896
-0.243796 -0.0126275 -0.0126275
-0.5 0 0
-0.353695 -0.152389 -0.0141721
-0.536881 -0.115851 -0.00244317
-0.294409 -0.154874 -0.154874
-0.432005 -0.134141 -0.134141
-0.414368 -0.299539 -0.117341
-0.507884 -0.257867 -0.105805
-0.174134 -0.174134 -0.0144999
-0.353695 -0.152389 -0.0141721
-0.353553 -0.353553 0
-0.461975 -0.297832 -0.00170805
-0.432005 -0.134141 -0.134141
-0.570402 -0.105896 -0.105896
-0.507884 -0.257867 -0.105805
-0.600493 -0.212053 -0.0913962
-0.353695 -0.152389 -0.0141721
-0.536881 -0.115851 -0.00244317
-0.461975 -0.297832 -0.00170805
-0.569036 -0.235702 0
0.353553 0 0.353553
0.411183 0.117661 0.285319
0.537419 -0.0281778 0.537419
0.596763 0.137258 0.402357
0.459993 -0.00425113 0.291088
0.503581 0.102398 0.24302
0.641654 -0.0301159 0.417791
0.678259 0.118479 0.329173
0.411183 0.117661 0.285319
0.471405 0.235702 0.235702
0.596763 0.137258 0.402357
0.661047 0.312266 0.312237
0.503581 0.102398 0.24302
0.548579 0.208479 0.208476
0.678259 0.118479 0.329173
0.717613 0.269712 0.269694
0.537419 -0.0281778 0.537419
0.596763 0.137258 0.402357
0.707107 0 0.707107
0.757805 0.193318 0.51969
0.641654 -0.0301159 0.417791
0.678259 0.118479 0.329173
0.807871 -0.0161475 0.544494
0.831582 0.161701 0.421738
0.596763 0.137258 0.402357
0.661047 0.312266 0.312237
0.757805 0.193318 0.51969
0.816522 0.408247 0.4082
0.678259 0.118479 0.329173
0.717613 0.269712 0.269694
0.831582 0.161701 0.421738
0.859931 0.346736 0.346707
0.459993 -0.00425113 0.291088
0.503581 0.102398 0.24302
0.641654 -0.0301159 0.417791
0.678259 0.118479 0.329173
0.569036 0 0.235702
0.598498 0.0930952 0.205874
0.753907 -0.0138175 0.304184
0.766627 0.108339 0.258856
0.503581 0.102398 0.24302
0.548579 0.208479 0.208476
0.678259 0.118479 0.329173
0.717613 0.269712 0.269694
0.598498 0.0930952 0.205874
0.62856 0.185159 0.185154
0.766627 0.108339 0.258856
0.780872 0.229538 0.229531
0.641654 -0.0301159 0.417791
0.678259 0.118479 0.329173
0.807871 -0.0161475 0.544494
0.831582 0.161701 0.421738
0.753907 -0.0138175 0.304184
0.766627 0.108339 0.258856
0.92388 0 0.382683
0.917524 0.14367 0.322767
0.678259 0.118479 0.329173
0.717613 0.269712 0.269694
0.831582 0.161701 0.421738
0.859931 0.346736 0.346707
0.766627 0.108339 0.258856
0.780872 0.229538 0.229531
0.917524 0.14367 0.322767
0.913968 0.286938 0.28693
0.471405 0.235702 0.235702
0.411183 0.285319 0.117661
0.661047 0.312266 0.312237
0.596764 0.402375 0.137246
0.548579 0.208479 0.208476
0.503581 0.243022 0.102397
0.717613 0.269712 0.269694
0.678259 0.329184 0.11847
0.411183 0.285319 0.117661
0.353553 0.353553 0
0.596764 0.402375 0.137246
0.537419 0.537419 -0.0281778
0.503581 0.243022 0.102397
0.459993 0.291088 -0.00425113
0.678259 0.329184 0.11847
0.641654 0.417791 -0.0301159
0.661047 0.312266 0.312237
0.596764 0.402375 0.137246
0.816522 0.408247 0.4082
0.757807 0.519722 0.193298
0.717613 0.269712 0.269694
[...]
POINT_DATA 8192
SCALARS M_0 double 1
LOOKUP_TABLE default
0.998388 1.00046 0.996302 1.00059 1.0001 1.00197 1.00006 1.00233 1.00046 1.00221 1.00059 1.00551 1.00197 1.00366 1.00233 1.00469 0.996302 1.00059 0.995605 1.00054 1.00006 1.00233 1.00007 1.00264 1.00059 1.00551 1.00054 1.00664 1.00233 1.00469 1.00264 1.00392 1.0001 1.00197 1.00006 1.00233 1.00197 1.00296 1.0038 1.0042 1.00197 1.00366 1.00233 1.00469 1.00296 1.00442 1.0042 1.00685 1.00006 1.00233 1.00007 1.00264 1.0038 1.0042 1.00174 1.00284 1.00233 1.00469 1.00264 1.00392 1.0042 1.00685 1.00284 1.00985 1.00221 1.00257 1.00551 1.00451 1.00366 1.00379 1.00469 1.00636 1.00257 1.00238 1.00451 1.00824 1.00379 1.00302 1.00636 1.00626 1.00551 1.00451 1.00664 1.006 1.00469 1.00636 1.00392 1.00577 1.00451 1.00824 1.006 1.01172 1.00636 1.00626 1.00577 1.01547 1.00366 1.00379 1.00469 1.00636 1.00442 1.00528 1.00685 1.00543 1.00379 1.00302 1.00636 1.00626 1.00528 1.0062 1.00543 1.00434 1.00469 1.00636 1.00392 1.00577 1.00685 1.00543 1.00985 1.01004 1.00636 1.00626 1.00577 1.01547 1.00543 1.00434 1.01004 1.00854 1.00197 1.00296 1.0038 1.0042 1.00174 1.00329 1.00552 1.00655 1.00296 1.00442 1.0042 1.00685 1.00329 1.00528 1.00655 1.00543 1.0038 1.0042 1.00174 1.00284 1.00552 1.00655 1.00745 1.00928 1.0042 1.00685 1.00284 1.00985 1.00655 1.00543 1.00928 1.01004 1.00174 1.00329 1.00552 1.00655 1.00459 1.00252 1.00661 1.00519 1.00329 1.00528 1.00655 1.00543 1.00252 1.0062 1.00519 1.00434 1.00552 1.00655 1.00745 1.00928 1.00661 1.00519 1.01277 1.00683 1.00655 1.00543 1.00928 1.01004 1.00519 1.00434 1.00683 1.00854 0.998388 1.00046 1.0001 1.00197 0.999518 1.00095 1.00106 1.00223 1.00046 1.00221 1.00197 1.00366 1.00095 1.00257 1.00223 1.00379 1.0001 1.00197 1.00197 1.00296 1.00106 1.00223 1.00174 1.00329 1.00197 1.00366 1.00296 1.00442 1.00223 1.00379 1.00329 1.00528 0.999518 1.00095 1.00106 1.00223 1 1.00072 1.00115 1.00179 1.00095 1.00257 1.00223 1.00379 1.00072 1.00238 1.00179 1.00302 1.00106 1.00223 1.00174 1.00329 1.00115 1.00179 1.00459 1.00252 1.00223 1.00379 1.00329 1.00528 1.00179 1.00302 1.00252 1.0062 0.998034 1.00025 0.997268 1.00052 1.00038 1.00241 1.00088 1.00253 1.00025 1.0025 1.00052 1.00439 1.00241 1.00391 1.00253 1.00654 0.997268 1.00052 0.994236 1.00109 1.00088 1.00253 1.0008 1.00238 1.00052 1.00439 1.00109 1.00703 1.00253 1.00654 1.00238 1.00617 1.00038 1.00241 1.00088 1.00253 1.00175 1.00451 1.00397 1.00604 1.00241 1.00391 1.00253 1.00654 1.00451 1.00299 1.00604 1.00517 1.00088 1.00253 1.0008 1.00238 1.00397 1.00604 1.0095 1.0092 1.00253 1.00654 1.00238 1.00617 1.00604 1.00517 1.0092 1.00876 1.0025 1.00251 1.00439 1.00786 1.00391 1.0048 1.00654 1.00716 1.00251 1.003 1.00786 1.00874 1.0048 1.00359 1.00716 1.00709 1.00439 1.00786 1.00703 1.00907 1.00654 1.00716 1.00617 1.01287 1.00786 1.00874 1.00907 1.00993 1.00716 1.00709 1.01287 1.00781 1.00391 1.0048 1.00654 1.00716 1.00299 1.00525 1.00517 1.00588 1.0048 1.00359 1.00716 1.00709 1.00525 1.0057 1.00588 1.00863 1.00654 1.00716 1.00617 1.01287 1.00517 1.00588 1.00876 1.00845 1.00716 1.00709 1.01287 1.00781 1.00588 1.00863 1.00845 1.00551 1.00175 1.00451 1.00397 1.00604 1.0028 1.00531 1.00563 1.00835 1.00451 1.00299 1.00604 1.00517 1.00531 1.00525 1.00835 1.00588 1.00397 1.00604 1.0095 1.0092 1.00563 1.00835 1.01019 1.00742 1.00604 1.00517 1.0092 1.00876 1.00835 1.00588 1.00742 1.00845 1.0028 1.00531 1.00563 1.00835 1.00435 1.00399 1.0056 1.00569 1.00531 1.00525 1.00835 1.00588 1.00399 1.0057 1.00569 1.00863 1.00563 1.00835 1.01019 1.00742 1.0056 1.00569 1.01535 1.01151 1.00835 1.00588 1.00742 1.00845 1.00569 1.00863 1.01151 1.00551 0.998034 1.00025 1.00038 1.00241 0.999578 1.00121 1.00133 1.00282 1.00025 1.0025 1.00241 1.00391 1.00121 1.00251 1.00282 1.0048 1.00038 1.00241 1.00175 1.00451 1.00133 1.00282 1.0028 1.00531 1.00241 1.00391 1.00451 1.00299 1.00282 1.0048 1.00531 1.00525 0.999578 1.00121 1.00133 1.00282 1 1.00093 1.0009 1.00217 1.00121 1.00251 1.00282 1.0048 1.00093 1.003 1.00217 1.00359 1.00133 1.00282 1.0028 1.00531 1.0009 1.00217 1.00435 1.00399 1.00282 1.0048 1.00531 1.00525 1.00217 1.00359 1.00399 1.0057 0.993028 0.993256 0.982486 0.989001 0.994273 0.991813 0.990903 0.984223 0.993256 0.992338 0.989001 0.988904 0.991813 0.990704 0.984223 0.988248 0.982486 0.989001 0.983802 0.969348 0.990903 0.984223 0.979538 0.983903 0.989001 0.988904 0.969348 0.986168 0.984223 0.988248 0.983903 0.977095 0.994273 0.991813 0.990903 0.984223 0.989836 0.99045 0.986426 0.987698 0.991813 0.990704 0.984223 0.988248 0.99045 0.99314 0.987698 0.992911 0.990903 0.984223 0.979538 0.983903 0.986426 0.987698 0.978911 0.98524 0.984223 0.988248 0.983903 0.977095 0.987698 0.992911 0.98524 0.978617 0.992338 0.995753 0.988904 0.993984 0.990704 0.99675 0.988248 0.98885 0.995753 0.9987 0.993984 0.997525 0.99675 0.996043 0.98885 0.993593 0.988904 0.993984 0.986168 0.990745 0.988248 0.98885 0.977095 0.990313 0.993984 0.997525 0.990745 0.993511 0.98885 0.993593 0.990313 0.993291 0.990704 0.99675 0.988248 0.98885 0.99314 0.993876 0.992911 0.986583 0.99675 0.996043 0.98885 0.993593 0.993876 0.995113 0.986583 0.993192 0.988248 0.98885 0.977095 0.990313 0.992911 0.986583 0.978617 0.984782 0.98885 0.993593 0.990313 0.993291 0.986583 0.993192 0.984782 0.989541 0.989836 0.99045 0.986426 0.987698 0.995476 0.993287 0.993486 0.994052 0.99045 0.99314 0.987698 0.992911 0.993287 0.993876 0.994052 0.986583 0.986426 0.987698 0.978911 0.98524 0.993486 0.994052 0.987872 0.988912 0.987698 0.992911 0.98524 0.978617 0.994052 0.986583 0.988912 0.984782 0.995476 0.993287 0.993486 0.994052 0.99851 0.997734 0.996586 0.995757 0.993287 0.993876 0.994052 0.986583 0.997734 0.995113 0.995757 0.993192 0.993486 0.994052 0.987872 0.988912 0.996586 0.995757 0.995021 0.992456 0.994052 0.986583 0.988912 0.984782 0.995757 0.993192 0.992456 0.989541 0.993028 0.993256 0.994273 0.991813 0.998558 0.996684 0.996899 0.995985 0.993256 0.992338 0.991813 0.990704 0.996684 0.995753 0.995985 0.99675 0.994273 0.991813 0.989836 0.99045 0.996899 0.995985 0.995476 0.993287 0.991813 0.990704 0.99045 0.99314 0.995985 0.99675 0.993287 0.993876 0.998558 0.996684 0.996899 0.995985 1 0.999685 0.999677 0.998505 0.996684 0.995753 0.995985 0.99675 0.999685 0.9987 0.998505 0.996043 0.996899 0.995985 0.995476 0.993287 0.999677 0.998505 0.99851 0.997734 0.995985 0.99675 0.993287 0.993876 0.998505 0.996043 0.997734 0.995113 0.992869 0.99362 0.987849 0.985173 0.990333 0.991933 0.990433 0.988808 0.99362 0.995385 0.985173 0.990198 0.991933 0.989929 0.988808 0.993425 0.987849 0.985173 0.973536 0.985661 0.990433 0.988808 0.981182 0.978153 0.985173 0.990198 0.985661 0.98498 0.988808 0.993425 0.978153 0.986527 0.990333 0.991933 0.990433 0.988808 0.993617 0.990488 0.989076 0.98749 0.991933 0.989929 0.988808 0.993425 0.990488 0.987765 0.98749 0.984132 0.990433 0.988808 0.981182 0.978153 0.989076 0.98749 0.978151 0.983339 0.988808 0.993425 0.978153 0.986527 0.98749 0.984132 0.983339 0.984553 0.995385 0.995466 0.990198 0.990648 0.989929 0.995146 0.993425 0.990628 0.995466 0.998427 0.990648 0.996614 0.995146 0.996443 0.990628 0.993599 0.990198 0.990648 0.98498 0.988364 0.993425 0.990628 0.986527 0.986318 0.990648 0.996614 0.988364 0.996408 0.990628 0.993599 0.986318 0.990613 0.989929 0.995146 0.993425 0.990628 0.987765 0.995346 0.984132 0.987886 0.995146 0.996443 0.990628 0.993599 0.995346 0.995145 0.987886 0.991802 0.993425 0.990628 0.986527 0.986318 0.984132 0.987886 0.984553 0.991108 0.990628 0.993599 0.986318 0.990613 0.987886 0.991802 0.991108 0.993079 0.993617 0.990488 0.989076 0.98749 0.99662 0.993063 0.990293 0.99157 0.990488 0.987765 0.98749 0.984132 0.993063 0.995346 0.99157 0.987886 0.989076 0.98749 0.978151 0.983339 0.990293 0.99157 0.986895 0.982767 0.98749 0.984132 0.983339 0.984553 0.99157 0.987886 0.982767 0.991108 0.99662 0.993063 0.990293 0.99157 0.998029 0.99702 0.995975 0.992872 0.993063 0.995346 0.99157 0.987886 0.99702 0.995145 0.992872 0.991802 0.990293 0.99157 0.986895 0.982767 0.995975 0.992872 0.995101 0.992701 0.99157 0.987886 0.982767 0.991108 0.992872 0.991802 0.992701 0.993079 0.992869 0.99362 0.990333 0.991933 0.998339 0.998194 0.996678 0.995355 0.99362 0.995385 0.991933 0.989929 0.998194 0.995466 0.995355 0.995146 0.990333 0.991933 0.993617 0.990488 0.996678 0.995355 0.99662 0.993063 0.991933 0.989929 0.990488 0.987765 0.995355 0.995146 0.993063 0.995346 0.998339 0.998194 0.996678 0.995355 1 0.999706 0.999369 0.99815 0.998194 0.995466 0.995355 0.995146 0.999706 0.998427 0.99815 0.996443 0.996678 0.995355 0.99662 0.993063 0.999369 0.99815 0.998029 0.99702 0.995355 0.995146 0.993063 0.995346 0.99815 0.996443 0.99702 0.995145 0.998198 1.00025 0.996352 1.00071 1.00058 1.00118 1.00098 1.00294 1.00025 1.0024 1.00071 1.00443 1.00118 1.0038 1.00294 1.00451 0.996352 1.00071 0.997153 1.00043 1.00098 1.00294 1.00075 1.00301 1.00071 1.00443 1.00043 1.00618 1.00294 1.00451 1.00301 1.00921 1.00058 1.00118 1.00098 1.00294 1.00289 1.0039 1.00485 1.00468 1.00118 1.0038 1.00294 1.00451 1.0039 1.006 1.00468 1.00781 1.00098 1.00294 1.00075 1.00301 1.00485 1.00468 1.00506 1.0072 1.00294 1.00451 1.00301 1.00921 1.00468 1.00781 1.0072 1.00728 1.0024 1.00321 1.00443 1.00566 1.0038 1.00469 1.00451 1.00583 1.00321 1.00354 1.00566 1.00831 1.00469 1.0051 1.00583 1.00646 1.00443 1.00566 1.00618 1.00901 1.00451 1.00583 1.00921 1.01459 1.00566 1.00831 1.00901 1.01226 1.00583 1.00646 1.01459 1.01582 1.0038 1.00469 1.00451 1.00583 1.006 1.00637 1.00781 1.00708 1.00469 1.0051 1.00583 1.00646 1.00637 1.00772 1.00708 1.00787 1.00451 1.00583 1.00921 1.01459 1.00781 1.00708 1.00728 1.01211 1.00583 1.00646 1.01459 1.01582 1.00708 1.00787 1.01211 1.00581 1.00289 1.0039 1.00485 1.00468 1.00233 1.00527 1.00732 1.00426 1.0039 1.006 1.00468 1.00781 1.00527 1.00637 1.00426 1.00708 1.00485 1.00468 1.00506 1.0072 1.00732 1.00426 1.00825 1.00919 1.00468 1.00781 1.0072 1.00728 1.00426 1.00708 1.00919 1.01211 1.00233 1.00527 1.00732 1.00426 1.00416 1.00239 1.00875 1.00791 1.00527 1.00637 1.00426 1.00708 1.00239 1.00772 1.00791 1.00787 1.00732 1.00426 1.00825 1.00919 1.00875 1.00791 1.01176 1.01029 1.00426 1.00708 1.00919 1.01211 1.00791 1.00787 1.01029 1.00581 0.998198 1.00025 1.00058 1.00118 0.999661 1.00108 1.00097 1.00198 1.00025 1.0024 1.00118 1.0038 1.00108 1.00321 1.00198 1.00469 1.00058 1.00118 1.00289 1.0039 1.00097 1.00198 1.00233 1.00527 1.00118 1.0038 1.0039 1.006 1.00198 1.00469 1.00527 1.00637 0.999661 1.00108 1.00097 1.00198 1 1.00102 1.00118 1.00181 1.00108 1.00321 1.00198 1.00469 1.00102 1.00354 1.00181 1.0051 1.00097 1.00198 1.00233 1.00527 1.00118 1.00181 1.00416 1.00239 1.00198 1.00469 1.00527 1.00637 1.00181 1.0051 1.00239 1.00772 1.00257 1.00269 1.00673 1.00726 1.00335 1.00449 1.00666 1.00526 1.00269 1.00252 1.00726 1.00382 1.00449 1.00496 1.00526 1.00544 1.00673 1.00726 1.0076 1.01065 1.00666 1.00526 1.01118 1.0089 1.00726 1.00382 1.01065 1.00462 1.00526 1.00544 1.0089 1.00581 1.00335 1.00449 1.00666 1.00526 1.00584 1.00614 1.008 1.00787 1.00449 1.00496 1.00526 1.00544 1.00614 1.00598 1.00787 1.00674 1.00666 1.00526 1.01118 1.0089 1.008 1.00787 1.01131 1.01003 1.00526 1.00544 1.0089 1.00581 1.00787 1.00674 1.01003 1.00686 1.00252 1.00005 1.00382 0.999588 1.00496 1.0024 1.00544 1.00294 1.00005 0.998615 0.999588 0.998057 1.0024 1.00065 1.00294 1.0005 1.00382 0.999588 1.00462 0.99969 1.00544 1.00294 1.00581 1.00421 0.999588 0.998057 0.99969 0.993797 1.00294 1.0005 1.00421 1.00096 1.00496 1.0024 1.00544 1.00294 1.00598 1.00329 1.00674 1.00659 1.0024 1.00065 1.00294 1.0005 1.00329 1.00371 1.00659 1.00494 1.00544 1.00294 1.00581 1.00421 1.00674 1.00659 1.00686 1.00542 1.00294 1.0005 1.00421 1.00096 1.00659 1.00494 1.00542 1.00669 1.00584 1.00614 1.008 1.00787 1.00454 1.0044 1.00825 1.00571 1.00614 1.00598 1.00787 1.00674 1.0044 1.00329 1.00571 1.00659 1.008 1.00787 1.01131 1.01003 1.00825 1.00571 1.01247 1.00607 1.00787 1.00674 1.01003 1.00686 1.00571 1.00659 1.00607 1.00542 1.00454 1.0044 1.00825 1.00571 1.002 1.00277 1.00515 1.00596 1.0044 1.00329 1.00571 1.00659 1.00277 1.00371 1.00596 1.00494 1.00825 1.00571 1.01247 1.00607 1.00515 1.00596 1.01338 1.00768 1.00571 1.00659 1.00607 1.00542 1.00596 1.00494 1.00768 1.00669 1.00257 1.00269 1.00335 1.00449 1.00079 1.0008 1.00258 1.00247 1.00269 1.00252 1.00449 1.00496 1.0008 1.00005 1.00247 1.0024 1.00335 1.00449 1.00584 1.00614 1.00258 1.00247 1.00454 1.0044 1.00449 1.00496 1.00614 1.00598 1.00247 1.0024 1.0044 1.00329 1.00079 1.0008 1.00258 1.00247 1 0.999479 1.00099 1.00074 1.0008 1.00005 1.00247 1.0024 0.999479 0.998615 1.00074 1.00065 1.00258 1.00247 1.00454 1.0044 1.00099 1.00074 1.002 1.00277 1.00247 1.0024 1.0044 1.00329 1.00074 1.00065 1.00277 1.00371 1.00257 1.00335 1.00673 1.00666 1.00271 1.002 1.00764 1.00558 1.00335 1.00584 1.00666 1.008 1.002 1.0065 1.00558 1.00846 1.00673 1.00666 1.0076 1.01118 1.00764 1.00558 1.00639 1.00524 1.00666 1.008 1.01118 1.01131 1.00558 1.00846 1.00524 1.00304 1.00271 1.002 1.00764 1.00558 1.00184 1.00284 1.00387 1.00634 1.002 1.0065 1.00558 1.00846 1.00284 1.00499 1.00634 1.00818 1.00764 1.00558 1.00639 1.00524 1.00387 1.00634 1.00471 1.00725 1.00558 1.00846 1.00524 1.00304 1.00634 1.00818 1.00725 1.00773 1.00584 1.00454 1.008 1.00825 1.0065 1.00299 1.00846 1.00547 1.00454 1.002 1.00825 1.00515 1.00299 1.00355 1.00547 1.00799 1.008 1.00825 1.01131 1.01247 1.00846 1.00547 1.00304 1.01036 1.00825 1.00515 1.01247 1.01338 1.00547 1.00799 1.01036 1.01138 1.0065 1.00299 1.00846 1.00547 1.00499 1.00362 1.00818 1.00651 1.00299 1.00355 1.00547 1.00799 1.00362 1.00211 1.00651 1.00395 1.00846 1.00547 1.00304 1.01036 1.00818 1.00651 1.00773 1.01182 1.00547 1.00799 1.01036 1.01138 1.00651 1.00395 1.01182 1.00411 1.00184 1.00284 1.00387 1.00634 1.00006 1.0021 0.999911 1.00277 1.00284 1.00499 1.00634 1.00818 1.0021 1.00362 1.00277 1.00651 1.00387 1.00634 1.00471 1.00725 0.999911 1.00277 0.999717 1.00399 1.00634 1.00818 1.00725 1.00773 1.00277 1.00651 1.00399 1.01182 1.00006 1.0021 0.999911 1.00277 0.99851 1.00057 0.996586 1.00057 1.0021 1.00362 1.00277 1.00651 1.00057 1.00211 1.00057 1.00395 0.999911 1.00277 0.999717 1.00399 0.996586 1.00057 0.995021 1.00044 1.00277 1.00651 1.00399 1.01182 1.00057 1.00395 1.00044 1.00411 1.00257 1.00335 1.00271 1.002 1.00079 1.00258 1.00099 1.00312 1.00335 1.00584 1.002 1.0065 1.00258 1.00454 1.00312 1.00299 1.00271 1.002 1.00184 1.00284 1.00099 1.00312 1.00006 1.0021 1.002 1.0065 1.00284 1.00499 1.00312 1.00299 1.0021 1.00362 1.00079 1.00258 1.00099 1.00312 1 1.00099 0.999677 1.00124 1.00258 1.00454 1.00312 1.00299 1.00099 1.002 1.00124 1.00355 1.00099 1.00312 1.00006 1.0021 0.999677 1.00124 0.99851 1.00057 1.00312 1.00299 1.0021 1.00362 1.00124 1.00355 1.00057 1.00211 0.998034 1.00038 0.997268 1.00088 1.00007 1.00149 0.99995 1.0029 1.00038 1.00175 1.00088 1.00397 1.00149 1.00484 1.0029 1.00579 0.997268 1.00088 0.994236 1.0008 0.99995 1.0029 0.999502 1.00291 1.00088 1.00397 1.0008 1.0095 1.0029 1.00579 1.00291 1.00454 1.00007 1.00149 0.99995 1.0029 1.00287 1.0025 1.0042 1.00557 1.00149 1.00484 1.0029 1.00579 1.0025 1.00534 1.00557 1.00723 0.99995 1.0029 0.999502 1.00291 1.0042 1.00557 1.00288 1.00743 1.0029 1.00579 1.00291 1.00454 1.00557 1.00723 1.00743 1.01346 1.00175 1.0028 1.00397 1.00563 1.00484 1.00245 1.00579 1.00854 1.0028 1.00435 1.00563 1.0056 1.00245 1.00413 1.00854 1.00564 1.00397 1.00563 1.0095 1.01019 1.00579 1.00854 1.00454 1.01398 1.00563 1.0056 1.01019 1.01535 1.00854 1.00564 1.01398 1.00805 1.00484 1.00245 1.00579 1.00854 1.00534 1.00366 1.00723 1.00445 1.00245 1.00413 1.00854 1.00564 1.00366 1.00441 1.00445 1.00719 1.00579 1.00854 1.00454 1.01398 1.00723 1.00445 1.01346 1.01085 1.00854 1.00564 1.01398 1.00805 1.00445 1.00719 1.01085 1.00718 1.00287 1.0025 1.0042 1.00557 1.00322 1.00498 1.00456 1.00584 1.0025 1.00534 1.00557 1.00723 1.00498 1.00366 1.00584 1.00445 1.0042 1.00557 1.00288 1.00743 1.00456 1.00584 1.01132 1.0077 1.00557 1.00723 1.00743 1.01346 1.00584 1.00445 1.0077 1.01085 1.00322 1.00498 1.00456 1.00584 1.00354 1.00433 1.00831 1.00778 1.00498 1.00366 1.00584 1.00445 1.00433 1.00441 1.00778 1.00719 1.00456 1.00584 1.01132 1.0077 1.00831 1.00778 1.01226 1.01199 1.00584 1.00445 1.0077 1.01085 1.00778 1.00719 1.01199 1.00718 0.998034 1.00038 1.00007 1.00149 0.999578 1.00133 1.00105 1.00248 1.00038 1.00175 1.00149 1.00484 1.00133 1.0028 1.00248 1.00245 1.00007 1.00149 1.00287 1.0025 1.00105 1.00248 1.00322 1.00498 1.00149 1.00484 1.0025 1.00534 1.00248 1.00245 1.00498 1.00366 0.999578 1.00133 1.00105 1.00248 1 1.0009 1.00102 1.00169 1.00133 1.0028 1.00248 1.00245 1.0009 1.00435 1.00169 1.00413 1.00105 1.00248 1.00322 1.00498 1.00102 1.00169 1.00354 1.00433 1.00248 1.00245 1.00498 1.00366 1.00169 1.00413 1.00433 1.00441 0.998615 1.00006 0.998057 0.999492 1.00065 1.00206 1.0005 1.0023 1.00006 1.00261 0.999492 1.00322 1.00206 1.00288 1.0023 1.00497 0.998057 0.999492 0.993797 0.999661 1.0005 1.0023 1.00096 1.00182 0.999492 1.00322 0.999661 1.00121 1.0023 1.00497 1.00182 1.00186 1.00065 1.00206 1.0005 1.0023 1.00371 1.00313 1.00494 1.00375 1.00206 1.00288 1.0023 1.00497 1.00313 1.00242 1.00375 1.00623 1.0005 1.0023 1.00096 1.00182 1.00494 1.00375 1.00669 1.0068 1.0023 1.00497 1.00182 1.00186 1.00375 1.00623 1.0068 1.00983 1.003 1.00483 1.00874 1.00707 1.00273 1.00343 1.00591 1.00868 1.00483 1.00629 1.00707 1.01002 1.00343 1.00505 1.00868 1.007 1.00874 1.00707 1.00993 1.00997 1.00591 1.00868 1.00793 1.01242 1.00707 1.01002 1.00997 1.0112 1.00868 1.007 1.01242 1.00957 1.00273 1.00343 1.00591 1.00868 1.00261 1.00288 1.00322 1.00497 1.00343 1.00505 1.00868 1.007 1.00288 1.00242 1.00497 1.00623 1.00591 1.00868 1.00793 1.01242 1.00322 1.00497 1.00121 1.00186 1.00868 1.007 1.01242 1.00957 1.00497 1.00623 1.00186 1.00983 1.002 1.00277 1.00515 1.00596 1.00342 1.0028 1.00624 1.00591 1.00277 1.00371 1.00596 1.00494 1.0028 1.00313 1.00591 1.00375 1.00515 1.00596 1.01338 1.00768 1.00624 1.00591 1.00665 1.01007 1.00596 1.00494 1.00768 1.00669 1.00591 1.00375 1.01007 1.0068 1.00342 1.0028 1.00624 1.00591 1.00629 1.00505 1.01002 1.007 1.0028 1.00313 1.00591 1.00375 1.00505 1.00242 1.007 1.00623 1.00624 1.00591 1.00665 1.01007 1.01002 1.007 1.0112 1.00957 1.00591 1.00375 1.01007 1.0068 1.007 1.00623 1.00957 1.00983 1 0.999479 1.00099 1.00074 1.00093 1.00065 1.00216 1.00135 0.999479 0.998615 1.00074 1.00065 1.00065 1.00006 1.00135 1.00206 1.00099 1.00074 1.002 1.00277 1.00216 1.00135 1.00342 1.0028 1.00074 1.00065 1.00277 1.00371 1.00135 1.00206 1.0028 1.00313 1.00093 1.00065 1.00216 1.00135 1.003 1.00273 1.00483 1.00343 1.00065 1.00006 1.00135 1.00206 1.00273 1.00261 1.00343 1.00288 1.00216 1.00135 1.00342 1.0028 1.00483 1.00343 1.00629 1.00505 1.00135 1.00206 1.0028 1.00313 1.00343 1.00288 1.00505 1.00242 1.00269 1.003 1.00355 1.00592 1.00014 1.00195 1.00012 1.00369 1.003 1.00544 1.00592 1.0076 1.00195 1.00401 1.00369 1.00493 1.00355 1.00592 1.00602 1.00829 1.00012 1.00369 1.00011 1.00406 1.00592 1.0076 1.00829 1.00487 1.00369 1.00493 1.00406 1.0078 1.00014 1.00195 1.00012 1.00369 0.998388 1.00046 0.996302 1.00059 1.00195 1.00401 1.00369 1.00493 1.00046 1.00221 1.00059 1.00551 1.00012 1.00369 1.00011 1.00406 0.996302 1.00059 0.995605 1.00054 1.00369 1.00493 1.00406 1.0078 1.00059 1.00551 1.00054 1.00664 1.00269 1.00375 1.00355 1.00447 1.003 1.00489 1.00592 1.00724 1.00375 1.00257 1.00447 1.00673 1.00489 1.00244 1.00724 1.00699 1.00355 1.00447 1.00602 1.0151 1.00592 1.00724 1.00829 1.00519 1.00447 1.00673 1.0151 1.0076 1.00724 1.00699 1.00519 1.00657 1.003 1.00489 1.00592 1.00724 1.00544 1.00499 1.0076 1.00698 1.00489 1.00244 1.00724 1.00699 1.00499 1.00648 1.00698 1.00667 1.00592 1.00724 1.00829 1.00519 1.0076 1.00698 1.00487 1.00995 1.00724 1.00699 1.00519 1.00657 1.00698 1.00667 1.00995 1.01214 1.00544 1.00499 1.0076 1.00698 1.00401 1.00372 1.00493 1.00772 1.00499 1.00648 1.00698 1.00667 1.00372 1.00333 1.00772 1.00603 1.0076 1.00698 1.00487 1.00995 1.00493 1.00772 1.0078 1.00731 1.00698 1.00667 1.00995 1.01214 1.00772 1.00603 1.00731 1.01598 1.00401 1.00372 1.00493 1.00772 1.00221 1.00257 1.0