# vtk DataFile Version 3.0
#This file was generated by the deal.II library on 2025/4/17 at 14:12:06
ASCII
DATASET UNSTRUCTURED_GRID

POINTS 8192 double
-0.353204 5.28139e-05 -0.354105
-0.461626 -0.00165523 -0.298384
-0.528475 -0.0100491 -0.529377
-0.639007 -0.00988133 -0.423978
-0.414018 -0.117288 -0.300091
-0.507535 -0.105752 -0.258418
-0.590971 -0.165803 -0.432116
-0.676812 -0.14449 -0.356264
-0.461626 -0.00165523 -0.298384
-0.568616 4.46463e-05 -0.236113
-0.639007 -0.00988133 -0.423978
-0.743443 -0.00565676 -0.311868
-0.507535 -0.105752 -0.258418
-0.600073 -0.0913515 -0.212463
-0.676812 -0.14449 -0.356264
-0.758958 -0.12064 -0.276889
-0.528475 -0.0100491 -0.529377
-0.639007 -0.00988133 -0.423978
-0.706773 4.32422e-05 -0.707638
-0.821251 -0.00283273 -0.548567
-0.590971 -0.165803 -0.432116
-0.676812 -0.14449 -0.356264
-0.773527 -0.202635 -0.563799
-0.85139 -0.174022 -0.451785
-0.639007 -0.00988133 -0.423978
-0.743443 -0.00565676 -0.311868
-0.821251 -0.00283273 -0.548567
-0.923456 3.93503e-05 -0.383056
-0.676812 -0.14449 -0.356264
-0.758958 -0.12064 -0.276889
-0.85139 -0.174022 -0.451785
-0.922418 -0.142813 -0.337434
-0.414018 -0.117288 -0.300091
-0.507535 -0.105752 -0.258418
-0.590971 -0.165803 -0.432116
-0.676812 -0.14449 -0.356264
-0.471016 -0.235567 -0.236122
-0.550326 -0.211087 -0.211641
-0.644807 -0.319981 -0.320535
-0.708421 -0.279004 -0.279558
-0.507535 -0.105752 -0.258418
-0.600073 -0.0913515 -0.212463
-0.676812 -0.14449 -0.356264
-0.758958 -0.12064 -0.276889
-0.550326 -0.211087 -0.211641
-0.628972 -0.184175 -0.184623
-0.708421 -0.279004 -0.279558
-0.769947 -0.236511 -0.236959
-0.590971 -0.165803 -0.432116
-0.676812 -0.14449 -0.356264
-0.773527 -0.202635 -0.563799
-0.85139 -0.174022 -0.451785
-0.644807 -0.319981 -0.320535
-0.708421 -0.279004 -0.279558
-0.82465 -0.399435 -0.399951
-0.87123 -0.342686 -0.343202
-0.676812 -0.14449 -0.356264
-0.758958 -0.12064 -0.276889
-0.85139 -0.174022 -0.451785
-0.922418 -0.142813 -0.337434
-0.708421 -0.279004 -0.279558
-0.769947 -0.236511 -0.236959
-0.87123 -0.342686 -0.343202
-0.914452 -0.285324 -0.285736
-0.568616 4.46463e-05 -0.236113
-0.536413 -0.00239715 -0.116119
-0.743443 -0.00565676 -0.311868
-0.748895 -0.0104096 -0.159232
-0.600073 -0.0913515 -0.212463
-0.569934 -0.10585 -0.106165
-0.758958 -0.12064 -0.276889
-0.757126 -0.142338 -0.142652
-0.536413 -0.00239715 -0.116119
-0.499515 5.34442e-05 -0.000112545
-0.748895 -0.0104096 -0.159232
-0.745199 -0.00988784 -0.0100538
-0.569934 -0.10585 -0.106165
-0.536396 -0.115797 -0.00255572
-0.757126 -0.142338 -0.142652
-0.748877 -0.15891 -0.0105681
-0.743443 -0.00565676 -0.311868
-0.748895 -0.0104096 -0.159232
-0.923456 3.93503e-05 -0.383056
-0.968901 -0.00328458 -0.190872
-0.758958 -0.12064 -0.276889
-0.757126 -0.142338 -0.142652
-0.922418 -0.142813 -0.337434
-0.95074 -0.169866 -0.170144
-0.748895 -0.0104096 -0.159232
-0.745199 -0.00988784 -0.0100538
-0.968901 -0.00328458 -0.190872
-0.999455 5.58899e-05 -9.70355e-05
-0.757126 -0.142338 -0.142652
-0.748877 -0.15891 -0.0105681
-0.95074 -0.169866 -0.170144
-0.968856 -0.190584 -0.00342682
-0.600073 -0.0913515 -0.212463
-0.569934 -0.10585 -0.106165
-0.758958 -0.12064 -0.276889
-0.757126 -0.142338 -0.142652
-0.628972 -0.184175 -0.184623
-0.600018 -0.211935 -0.0916213
-0.769947 -0.236511 -0.236959
-0.758903 -0.276361 -0.12091
-0.569934 -0.10585 -0.106165
-0.536396 -0.115797 -0.00255572
-0.757126 -0.142338 -0.142652
-0.748877 -0.15891 -0.0105681
-0.600018 -0.211935 -0.0916213
-0.568551 -0.235564 -9.40165e-05
-0.758903 -0.276361 -0.12091
-0.743378 -0.311319 -0.00579542
-0.758958 -0.12064 -0.276889
-0.757126 -0.142338 -0.142652
-0.922418 -0.142813 -0.337434
-0.95074 -0.169866 -0.170144
-0.769947 -0.236511 -0.236959
-0.758903 -0.276361 -0.12091
-0.914452 -0.285324 -0.285736
-0.922339 -0.336936 -0.143048
-0.757126 -0.142338 -0.142652
-0.748877 -0.15891 -0.0105681
-0.95074 -0.169866 -0.170144
-0.968856 -0.190584 -0.00342682
-0.758903 -0.276361 -0.12091
-0.743378 -0.311319 -0.00579542
-0.922339 -0.336936 -0.143048
-0.923349 -0.382532 -8.10642e-05
-0.471016 -0.235567 -0.236122
-0.550326 -0.211087 -0.211641
-0.644807 -0.319981 -0.320535
-0.708421 -0.279004 -0.279558
-0.413961 -0.299327 -0.117612
-0.507478 -0.257654 -0.106076
-0.590914 -0.431352 -0.166127
-0.676755 -0.3555 -0.144814
-0.550326 -0.211087 -0.211641
-0.628972 -0.184175 -0.184623
-0.708421 -0.279004 -0.279558
-0.769947 -0.236511 -0.236959
-0.507478 -0.257654 -0.106076
-0.600018 -0.211935 -0.0916213
-0.676755 -0.3555 -0.144814
-0.758903 -0.276361 -0.12091
-0.644807 -0.319981 -0.320535
-0.708421 -0.279004 -0.279558
-0.82465 -0.399435 -0.399951
-0.87123 -0.342686 -0.343202
-0.590914 -0.431352 -0.166127
-0.676755 -0.3555 -0.144814
-0.773427 -0.563041 -0.202914
-0.85129 -0.451027 -0.174302
-0.708421 -0.279004 -0.279558
-0.769947 -0.236511 -0.236959
-0.87123 -0.342686 -0.343202
-0.914452 -0.285324 -0.285736
-0.676755 -0.3555 -0.144814
-0.758903 -0.276361 -0.12091
-0.85129 -0.451027 -0.174302
-0.922339 -0.336936 -0.143048
-0.413961 -0.299327 -0.117612
-0.507478 -0.257654 -0.106076
-0.590914 -0.431352 -0.166127
-0.676755 -0.3555 -0.144814
-0.353157 -0.35328 -0.000107441
-0.461579 -0.297558 -0.00181549
-0.528429 -0.528551 -0.0102094
-0.638961 -0.423152 -0.0100416
-0.507478 -0.257654 -0.106076
-0.600018 -0.211935 -0.0916213
-0.676755 -0.3555 -0.144814
-0.758903 -0.276361 -0.12091
-0.461579 -0.297558 -0.00181549
-0.568551 -0.235564 -9.40165e-05
-0.638961 -0.423152 -0.0100416
-0.743378 -0.311319 -0.00579542
-0.590914 -0.431352 -0.166127
-0.676755 -0.3555 -0.144814
-0.773427 -0.563041 -0.202914
-0.85129 -0.451027 -0.174302
-0.528429 -0.528551 -0.0102094
-0.638961 -0.423152 -0.0100416
-0.706665 -0.706798 -9.40474e-05
-0.821144 -0.547726 -0.00297002
-0.676755 -0.3555 -0.144814
-0.758903 -0.276361 -0.12091
-0.85129 -0.451027 -0.174302
-0.922339 -0.336936 -0.143048
-0.638961 -0.423152 -0.0100416
-0.743378 -0.311319 -0.00579542
-0.821144 -0.547726 -0.00297002
-0.923349 -0.382532 -8.10642e-05
-0.353204 5.28139e-05 -0.354105
-0.461626 -0.00165523 -0.298384
-0.414018 -0.117288 -0.300091
-0.507535 -0.105752 -0.258418
-0.173826 -0.0144349 -0.174546
-0.353387 -0.0141071 -0.152802
-0.294102 -0.154809 -0.155287
-0.431697 -0.134076 -0.134554
-0.461626 -0.00165523 -0.298384
-0.568616 4.46463e-05 -0.236113
-0.507535 -0.105752 -0.258418
-0.600073 -0.0913515 -0.212463
-0.353387 -0.0141071 -0.152802
-0.536413 -0.00239715 -0.116119
-0.431697 -0.134076 -0.134554
-0.569934 -0.10585 -0.106165
-0.414018 -0.117288 -0.300091
-0.507535 -0.105752 -0.258418
-0.471016 -0.235567 -0.236122
-0.550326 -0.211087 -0.211641
-0.294102 -0.154809 -0.155287
-0.431697 -0.134076 -0.134554
-0.413961 -0.299327 -0.117612
-0.507478 -0.257654 -0.106076
-0.507535 -0.105752 -0.258418
-0.600073 -0.0913515 -0.212463
-0.550326 -0.211087 -0.211641
-0.628972 -0.184175 -0.184623
-0.431697 -0.134076 -0.134554
-0.569934 -0.10585 -0.106165
-0.507478 -0.257654 -0.106076
-0.600018 -0.211935 -0.0916213
-0.173826 -0.0144349 -0.174546
-0.353387 -0.0141071 -0.152802
-0.294102 -0.154809 -0.155287
-0.431697 -0.134076 -0.134554
0.00023805 7.98351e-05 -0.00017054
-0.243558 -0.0125477 -0.012798
-0.173896 -0.174054 -0.0146705
-0.353457 -0.152309 -0.0143426
-0.353387 -0.0141071 -0.152802
-0.536413 -0.00239715 -0.116119
-0.431697 -0.134076 -0.134554
-0.569934 -0.10585 -0.106165
-0.243558 -0.0125477 -0.012798
-0.499515 5.34442e-05 -0.000112545
-0.353457 -0.152309 -0.0143426
-0.536396 -0.115797 -0.00255572
-0.294102 -0.154809 -0.155287
-0.431697 -0.134076 -0.134554
-0.413961 -0.299327 -0.117612
-0.507478 -0.257654 -0.106076
-0.173896 -0.174054 -0.0146705
-0.353457 -0.152309 -0.0143426
-0.353157 -0.35328 -0.000107441
-0.461579 -0.297558 -0.00181549
-0.431697 -0.134076 -0.134554
-0.569934 -0.10585 -0.106165
-0.507478 -0.257654 -0.106076
-0.600018 -0.211935 -0.0916213
-0.353457 -0.152309 -0.0143426
-0.536396 -0.115797 -0.00255572
-0.461579 -0.297558 -0.00181549
-0.568551 -0.235564 -9.40165e-05
0.353286 -2.12366e-05 0.354068
0.410916 0.11764 0.285833
0.537151 -0.0281991 0.537933
0.596495 0.137237 0.402871
0.459726 -0.00427237 0.291603
0.503314 0.102377 0.243534
0.641387 -0.0301372 0.418305
0.677991 0.118458 0.329687
0.410916 0.11764 0.285833
0.471089 0.235598 0.236079
0.596495 0.137237 0.402871
0.660731 0.312161 0.312614
0.503314 0.102377 0.243534
0.548263 0.208374 0.208854
0.677991 0.118458 0.329687
0.717298 0.269607 0.270071
0.537151 -0.0281991 0.537933
0.596495 0.137237 0.402871
0.706865 -1.38713e-05 0.707602
0.757563 0.193304 0.520186
0.641387 -0.0301372 0.418305
0.677991 0.118458 0.329687
0.80763 -0.0161614 0.544989
0.831341 0.161687 0.422234
0.596495 0.137237 0.402871
0.660731 0.312161 0.312614
0.757563 0.193304 0.520186
0.816207 0.408148 0.408535
0.677991 0.118458 0.329687
0.717298 0.269607 0.270071
0.831341 0.161687 0.422234
0.859617 0.346637 0.347042
0.459726 -0.00427237 0.291603
0.503314 0.102377 0.243534
0.641387 -0.0301372 0.418305
0.677991 0.118458 0.329687
0.568689 -2.09209e-05 0.236076
0.598151 0.0930743 0.206248
0.75356 -0.0138384 0.304558
0.76628 0.108318 0.25923
0.503314 0.102377 0.243534
0.548263 0.208374 0.208854
0.677991 0.118458 0.329687
0.717298 0.269607 0.270071
0.598151 0.0930743 0.206248
0.628186 0.185067 0.185446
0.76628 0.108318 0.25923
0.780498 0.229445 0.229822
0.641387 -0.0301372 0.418305
0.677991 0.118458 0.329687
0.80763 -0.0161614 0.544989
0.831341 0.161687 0.422234
0.75356 -0.0138384 0.304558
0.76628 0.108318 0.25923
0.923533 -1.7919e-05 0.383015
0.917177 0.143652 0.323098
0.677991 0.118458 0.329687
0.717298 0.269607 0.270071
0.831341 0.161687 0.422234
0.859617 0.346637 0.347042
0.76628 0.108318 0.25923
0.780498 0.229445 0.229822
0.917177 0.143652 0.323098
0.913584 0.286845 0.287173
0.471089 0.235598 0.236079
0.410839 0.285139 0.11789
0.660731 0.312161 0.312614
0.59642 0.402195 0.137475
0.548263 0.208374 0.208854
0.503237 0.242842 0.102627
0.717298 0.269607 0.270071
0.677915 0.329004 0.1187
0.410839 0.285139 0.11789
0.353209 0.353311 5.469e-05
0.59642 0.402195 0.137475
[...]
POINT_DATA 8192
SCALARS A_0 double 1
LOOKUP_TABLE default
1.00105 1.00032 1.00293 0.999994 0.999649 0.997436 0.999861 0.996111 1.00032 0.997208 0.999994 0.994626 0.997436 0.99462 0.996111 0.99384 1.00293 0.999994 1.00588 0.99996 0.999861 0.996111 0.999833 0.995436 0.999994 0.994626 0.99996 0.99612 0.996111 0.99384 0.995436 0.992358 0.999649 0.997436 0.999861 0.996111 0.998231 0.996695 0.996495 0.995955 0.997436 0.99462 0.996111 0.99384 0.996695 0.99573 0.995955 0.993877 0.999861 0.996111 0.999833 0.995436 0.996495 0.995955 0.995708 0.992787 0.996111 0.99384 0.995436 0.992358 0.995955 0.993877 0.992787 0.992173 0.997208 0.996308 0.994626 0.993618 0.99462 0.994614 0.99384 0.992769 0.996308 0.996751 0.993618 0.991873 0.994614 0.994469 0.992769 0.991711 0.994626 0.993618 0.99612 0.991701 0.99384 0.992769 0.992358 0.98821 0.993618 0.991873 0.991701 0.988985 0.992769 0.991711 0.98821 0.989422 0.99462 0.994614 0.99384 0.992769 0.99573 0.995967 0.993877 0.993068 0.994614 0.994469 0.992769 0.991711 0.995967 0.994558 0.993068 0.992237 0.99384 0.992769 0.992358 0.98821 0.993877 0.993068 0.992173 0.991026 0.992769 0.991711 0.98821 0.989422 0.993068 0.992237 0.991026 0.989311 0.998231 0.996695 0.996495 0.995955 0.996749 0.995736 0.994127 0.992931 0.996695 0.99573 0.995955 0.993877 0.995736 0.995967 0.992931 0.993068 0.996495 0.995955 0.995708 0.992787 0.994127 0.992931 0.986887 0.99061 0.995955 0.993877 0.992787 0.992173 0.992931 0.993068 0.99061 0.991026 0.996749 0.995736 0.994127 0.992931 0.996326 0.996579 0.994372 0.990943 0.995736 0.995967 0.992931 0.993068 0.996579 0.994558 0.990943 0.992237 0.994127 0.992931 0.986887 0.99061 0.994372 0.990943 0.990586 0.990796 0.992931 0.993068 0.99061 0.991026 0.990943 0.992237 0.990796 0.989311 1.00105 1.00032 0.999649 0.997436 0.999997 0.998738 0.998702 0.996412 1.00032 0.997208 0.997436 0.99462 0.998738 0.996308 0.996412 0.994614 0.999649 0.997436 0.998231 0.996695 0.998702 0.996412 0.996749 0.995736 0.997436 0.99462 0.996695 0.99573 0.996412 0.994614 0.995736 0.995967 0.999997 0.998738 0.998702 0.996412 0.999114 0.998618 0.998114 0.996465 0.998738 0.996308 0.996412 0.994614 0.998618 0.996751 0.996465 0.994469 0.998702 0.996412 0.996749 0.995736 0.998114 0.996465 0.996326 0.996579 0.996412 0.994614 0.995736 0.995967 0.996465 0.994469 0.996579 0.994558 1.00147 0.999621 1.0034 0.999579 0.999562 0.997737 0.999484 0.99669 0.999621 0.997513 0.999579 0.996561 0.997737 0.997356 0.99669 0.995375 1.0034 0.999579 1.00514 0.999369 0.999484 0.99669 0.999441 0.995655 0.999579 0.996561 0.999369 0.995573 0.99669 0.995375 0.995655 0.994092 0.999562 0.997737 0.999484 0.99669 0.996 0.994901 0.995113 0.993129 0.997737 0.997356 0.99669 0.995375 0.994901 0.996167 0.993129 0.993896 0.999484 0.99669 0.999441 0.995655 0.995113 0.993129 0.993596 0.994198 0.99669 0.995375 0.995655 0.994092 0.993129 0.993896 0.994198 0.988955 0.997513 0.997291 0.996561 0.992149 0.997356 0.995989 0.995375 0.991862 0.997291 0.997788 0.992149 0.993673 0.995989 0.994338 0.991862 0.991748 0.996561 0.992149 0.995573 0.99154 0.995375 0.991862 0.994092 0.992463 0.992149 0.993673 0.99154 0.993348 0.991862 0.991748 0.992463 0.986418 0.997356 0.995989 0.995375 0.991862 0.996167 0.996047 0.993896 0.992495 0.995989 0.994338 0.991862 0.991748 0.996047 0.996608 0.992495 0.993123 0.995375 0.991862 0.994092 0.992463 0.993896 0.992495 0.988955 0.991415 0.991862 0.991748 0.992463 0.986418 0.992495 0.993123 0.991415 0.994331 0.996 0.994901 0.995113 0.993129 0.996051 0.995226 0.994108 0.993589 0.994901 0.996167 0.993129 0.993896 0.995226 0.996047 0.993589 0.992495 0.995113 0.993129 0.993596 0.994198 0.994108 0.993589 0.993934 0.992993 0.993129 0.993896 0.994198 0.988955 0.993589 0.992495 0.992993 0.991415 0.996051 0.995226 0.994108 0.993589 0.996555 0.996599 0.99241 0.992491 0.995226 0.996047 0.993589 0.992495 0.996599 0.996608 0.992491 0.993123 0.994108 0.993589 0.993934 0.992993 0.99241 0.992491 0.989691 0.989836 0.993589 0.992495 0.992993 0.991415 0.992491 0.993123 0.989836 0.994331 1.00147 0.999621 0.999562 0.997737 1.00002 0.998412 0.998335 0.997583 0.999621 0.997513 0.997737 0.997356 0.998412 0.997291 0.997583 0.995989 0.999562 0.997737 0.996 0.994901 0.998335 0.997583 0.996051 0.995226 0.997737 0.997356 0.994901 0.996167 0.997583 0.995989 0.995226 0.996047 1.00002 0.998412 0.998335 0.997583 0.999114 1.00071 0.999351 0.996184 0.998412 0.997291 0.997583 0.995989 1.00071 0.997788 0.996184 0.994338 0.998335 0.997583 0.996051 0.995226 0.999351 0.996184 0.996555 0.996599 0.997583 0.995989 0.995226 0.996047 0.996184 0.994338 0.996599 0.996608 1.00707 1.00803 1.00961 1.01359 1.00709 1.00841 1.01501 1.01395 1.00803 1.00602 1.01359 1.01231 1.00841 1.00628 1.01395 1.01012 1.00961 1.01359 1.01255 1.01655 1.01501 1.01395 1.01194 1.01189 1.01359 1.01231 1.01655 1.01085 1.01395 1.01012 1.01189 1.01275 1.00709 1.00841 1.01501 1.01395 1.007 1.0076 1.01433 1.01447 1.00841 1.00628 1.01395 1.01012 1.0076 1.00727 1.01447 1.00759 1.01501 1.01395 1.01194 1.01189 1.01433 1.01447 1.00805 1.01561 1.01395 1.01012 1.01189 1.01275 1.01447 1.00759 1.01561 1.01033 1.00602 1.00436 1.01231 1.00795 1.00628 1.00565 1.01012 1.0091 1.00436 1.00198 1.00795 1.00242 1.00565 1.00277 1.0091 1.00776 1.01231 1.00795 1.01085 1.00996 1.01012 1.0091 1.01275 1.01374 1.00795 1.00242 1.00996 1.00627 1.0091 1.00776 1.01374 1.00609 1.00628 1.00565 1.01012 1.0091 1.00727 1.00779 1.00759 1.00719 1.00565 1.00277 1.0091 1.00776 1.00779 1.00458 1.00719 1.0085 1.01012 1.0091 1.01275 1.01374 1.00759 1.00719 1.01033 1.00951 1.0091 1.00776 1.01374 1.00609 1.00719 1.0085 1.00951 1.00763 1.007 1.0076 1.01433 1.01447 1.00534 1.00506 1.00805 1.01079 1.0076 1.00727 1.01447 1.00759 1.00506 1.00779 1.01079 1.00719 1.01433 1.01447 1.00805 1.01561 1.00805 1.01079 1.01169 1.01281 1.01447 1.00759 1.01561 1.01033 1.01079 1.00719 1.01281 1.00951 1.00534 1.00506 1.00805 1.01079 1.00146 1.00295 1.00339 1.00403 1.00506 1.00779 1.01079 1.00719 1.00295 1.00458 1.00403 1.0085 1.00805 1.01079 1.01169 1.01281 1.00339 1.00403 1.00596 1.00674 1.01079 1.00719 1.01281 1.00951 1.00403 1.0085 1.00674 1.00763 1.00707 1.00803 1.00709 1.00841 0.999982 1.00169 1.00287 1.00293 1.00803 1.00602 1.00841 1.00628 1.00169 1.00436 1.00293 1.00565 1.00709 1.00841 1.007 1.0076 1.00287 1.00293 1.00534 1.00506 1.00841 1.00628 1.0076 1.00727 1.00293 1.00565 1.00506 1.00779 0.999982 1.00169 1.00287 1.00293 0.999114 0.997604 0.998732 1.0012 1.00169 1.00436 1.00293 1.00565 0.997604 1.00198 1.0012 1.00277 1.00287 1.00293 1.00534 1.00506 0.998732 1.0012 1.00146 1.00295 1.00293 1.00565 1.00506 1.00779 1.0012 1.00277 1.00295 1.00458 1.00854 1.00797 1.01394 1.01356 1.00743 1.00877 1.01025 1.00782 1.00797 1.00896 1.01356 1.01068 1.00877 1.01183 1.00782 1.01521 1.01394 1.01356 1.0221 1.01845 1.01025 1.00782 1.02282 1.02125 1.01356 1.01068 1.01845 1.00993 1.00782 1.01521 1.02125 1.01184 1.00743 1.00877 1.01025 1.00782 1.00746 1.00769 1.01003 1.01147 1.00877 1.01183 1.00782 1.01521 1.00769 1.00843 1.01147 1.01549 1.01025 1.00782 1.02282 1.02125 1.01003 1.01147 1.01535 1.01725 1.00782 1.01521 1.02125 1.01184 1.01147 1.01549 1.01725 1.01863 1.00896 1.00543 1.01068 1.00834 1.01183 1.00626 1.01521 1.00611 1.00543 1.00133 1.00834 1.00366 1.00626 1.00257 1.00611 1.00739 1.01068 1.00834 1.00993 1.01617 1.01521 1.00611 1.01184 1.01318 1.00834 1.00366 1.01617 1.00375 1.00611 1.00739 1.01318 1.00701 1.01183 1.00626 1.01521 1.00611 1.00843 1.00651 1.01549 1.01051 1.00626 1.00257 1.00611 1.00739 1.00651 1.0044 1.01051 1.00767 1.01521 1.00611 1.01184 1.01318 1.01549 1.01051 1.01863 1.01782 1.00611 1.00739 1.01318 1.00701 1.01051 1.00767 1.01782 1.01498 1.00746 1.00769 1.01003 1.01147 1.00467 1.00557 1.00907 1.00741 1.00769 1.00843 1.01147 1.01549 1.00557 1.00651 1.00741 1.01051 1.01003 1.01147 1.01535 1.01725 1.00907 1.00741 1.0029 1.01694 1.01147 1.01549 1.01725 1.01863 1.00741 1.01051 1.01694 1.01782 1.00467 1.00557 1.00907 1.00741 1.00072 1.0022 1.00297 1.00577 1.00557 1.00651 1.00741 1.01051 1.0022 1.0044 1.00577 1.00767 1.00907 1.00741 1.0029 1.01694 1.00297 1.00577 1.00422 1.00431 1.00741 1.01051 1.01694 1.01782 1.00577 1.00767 1.00431 1.01498 1.00854 1.00797 1.00743 1.00877 1.00014 1.00199 1.00137 1.00208 1.00797 1.00896 1.00877 1.01183 1.00199 1.00543 1.00208 1.00626 1.00743 1.00877 1.00746 1.00769 1.00137 1.00208 1.00467 1.00557 1.00877 1.01183 1.00769 1.00843 1.00208 1.00626 1.00557 1.00651 1.00014 1.00199 1.00137 1.00208 0.999114 0.998483 0.999539 1.00039 1.00199 1.00543 1.00208 1.00626 0.998483 1.00133 1.00039 1.00257 1.00137 1.00208 1.00467 1.00557 0.999539 1.00039 1.00072 1.0022 1.00208 1.00626 1.00557 1.00651 1.00039 1.00257 1.0022 1.0044 1.00157 0.999785 1.00262 0.999543 0.999569 0.997437 0.999223 0.995932 0.999785 0.998995 0.999543 0.996898 0.997437 0.99673 0.995932 0.995521 1.00262 0.999543 1.00541 0.999828 0.999223 0.995932 0.999392 0.997562 0.999543 0.996898 0.999828 0.995993 0.995932 0.995521 0.997562 0.997249 0.999569 0.997437 0.999223 0.995932 0.997117 0.995859 0.995916 0.993111 0.997437 0.99673 0.995932 0.995521 0.995859 0.995436 0.993111 0.992353 0.999223 0.995932 0.999392 0.997562 0.995916 0.993111 0.993641 0.990434 0.995932 0.995521 0.997562 0.997249 0.993111 0.992353 0.990434 0.989832 0.998995 0.995985 0.996898 0.993582 0.99673 0.996126 0.995521 0.993148 0.995985 0.996043 0.993582 0.990569 0.996126 0.996114 0.993148 0.991955 0.996898 0.993582 0.995993 0.991344 0.995521 0.993148 0.997249 0.995722 0.993582 0.990569 0.991344 0.990049 0.993148 0.991955 0.995722 0.99127 0.99673 0.996126 0.995521 0.993148 0.995436 0.995133 0.992353 0.991313 0.996126 0.996114 0.993148 0.991955 0.995133 0.996315 0.991313 0.990669 0.995521 0.993148 0.997249 0.995722 0.992353 0.991313 0.989832 0.986754 0.993148 0.991955 0.995722 0.99127 0.991313 0.990669 0.986754 0.993116 0.997117 0.995859 0.995916 0.993111 0.995325 0.994617 0.993226 0.991069 0.995859 0.995436 0.993111 0.992353 0.994617 0.995133 0.991069 0.991313 0.995916 0.993111 0.993641 0.990434 0.993226 0.991069 0.989355 0.988971 0.993111 0.992353 0.990434 0.989832 0.991069 0.991313 0.988971 0.986754 0.995325 0.994617 0.993226 0.991069 0.9952 0.995359 0.992875 0.992546 0.994617 0.995133 0.991069 0.991313 0.995359 0.996315 0.992546 0.990669 0.993226 0.991069 0.989355 0.988971 0.992875 0.992546 0.991169 0.987753 0.991069 0.991313 0.988971 0.986754 0.992546 0.990669 0.987753 0.993116 1.00157 0.999785 0.999569 0.997437 0.999101 0.998686 0.998039 0.996857 0.999785 0.998995 0.997437 0.99673 0.998686 0.995985 0.996857 0.996126 0.999569 0.997437 0.997117 0.995859 0.998039 0.996857 0.995325 0.994617 0.997437 0.99673 0.995859 0.995436 0.996857 0.996126 0.994617 0.995133 0.999101 0.998686 0.998039 0.996857 0.999114 0.999179 0.998502 0.997146 0.998686 0.995985 0.996857 0.996126 0.999179 0.996043 0.997146 0.996114 0.998039 0.996857 0.995325 0.994617 0.998502 0.997146 0.9952 0.995359 0.996857 0.996126 0.994617 0.995133 0.997146 0.996114 0.995359 0.996315 0.997197 0.997244 0.993957 0.994433 0.995981 0.995856 0.992888 0.9946 0.997244 0.997515 0.994433 0.994328 0.995856 0.996144 0.9946 0.994855 0.993957 0.994433 0.987873 0.994778 0.992888 0.9946 0.989628 0.992156 0.994433 0.994328 0.994778 0.995494 0.9946 0.994855 0.992156 0.996624 0.995981 0.995856 0.992888 0.9946 0.996879 0.995869 0.992406 0.995145 0.995856 0.996144 0.9946 0.994855 0.995869 0.995664 0.995145 0.994119 0.992888 0.9946 0.989628 0.992156 0.992406 0.995145 0.986463 0.994094 0.9946 0.994855 0.992156 0.996624 0.995145 0.994119 0.994094 0.994346 0.997515 0.999457 0.994328 1.00081 0.996144 0.99735 0.994855 0.998207 0.999457 1.00078 1.00081 1.00381 0.99735 0.999084 0.998207 1.00066 0.994328 1.00081 0.995494 1.00043 0.994855 0.998207 0.996624 0.996409 1.00081 1.00381 1.00043 1.00534 0.998207 1.00066 0.996409 0.999895 0.996144 0.99735 0.994855 0.998207 0.995664 0.995385 0.994119 0.993839 0.99735 0.999084 0.998207 1.00066 0.995385 0.995534 0.993839 0.995632 0.994855 0.998207 0.996624 0.996409 0.994119 0.993839 0.994346 0.990477 0.998207 1.00066 0.996409 0.999895 0.993839 0.995632 0.990477 0.993578 0.996879 0.995869 0.992406 0.995145 0.997024 0.996296 0.991911 0.992014 0.995869 0.995664 0.995145 0.994119 0.996296 0.995385 0.992014 0.993839 0.992406 0.995145 0.986463 0.994094 0.991911 0.992014 0.991231 0.99085 0.995145 0.994119 0.994094 0.994346 0.992014 0.993839 0.99085 0.990477 0.997024 0.996296 0.991911 0.992014 0.997004 0.996873 0.994589 0.992899 0.996296 0.995385 0.992014 0.993839 0.996873 0.995534 0.992899 0.995632 0.991911 0.992014 0.991231 0.99085 0.994589 0.992899 0.990189 0.989792 0.992014 0.993839 0.99085 0.990477 0.992899 0.995632 0.989792 0.993578 0.997197 0.997244 0.995981 0.995856 0.999751 0.999257 0.998957 0.998053 0.997244 0.997515 0.995856 0.996144 0.999257 0.999457 0.998053 0.99735 0.995981 0.995856 0.996879 0.995869 0.998957 0.998053 0.997024 0.996296 0.995856 0.996144 0.995869 0.995664 0.998053 0.99735 0.996296 0.995385 0.999751 0.999257 0.998957 0.998053 0.999114 1.00072 1.00079 0.999496 0.999257 0.999457 0.998053 0.99735 1.00072 1.00078 0.999496 0.999084 0.998957 0.998053 0.997024 0.996296 1.00079 0.999496 0.997004 0.996873 0.998053 0.99735 0.996296 0.995385 0.999496 0.999084 0.996873 0.995534 0.997197 0.995981 0.993957 0.992888 0.995634 0.994733 0.99399 0.989915 0.995981 0.996879 0.992888 0.992406 0.994733 0.995939 0.989915 0.992778 0.993957 0.992888 0.987873 0.989628 0.99399 0.989915 0.99498 0.993991 0.992888 0.992406 0.989628 0.986463 0.989915 0.992778 0.993991 0.990633 0.995634 0.994733 0.99399 0.989915 0.997185 0.996242 0.996347 0.994559 0.994733 0.995939 0.989915 0.992778 0.996242 0.996117 0.994559 0.992057 0.99399 0.989915 0.99498 0.993991 0.996347 0.994559 0.993812 0.992865 0.989915 0.992778 0.993991 0.990633 0.994559 0.992057 0.992865 0.991581 0.996879 0.997024 0.992406 0.991911 0.995939 0.995007 0.992778 0.996189 0.997024 0.997004 0.991911 0.994589 0.995007 0.997096 0.996189 0.994089 0.992406 0.991911 0.986463 0.991231 0.992778 0.996189 0.990633 0.993448 0.991911 0.994589 0.991231 0.990189 0.996189 0.994089 0.993448 0.99226 0.995939 0.995007 0.992778 0.996189 0.996117 0.996283 0.992057 0.993126 0.995007 0.997096 0.996189 0.994089 0.996283 0.995817 0.993126 0.995573 0.992778 0.996189 0.990633 0.993448 0.992057 0.993126 0.991581 0.991749 0.996189 0.994089 0.993448 0.99226 0.993126 0.995573 0.991749 0.990465 0.997185 0.996242 0.996347 0.994559 0.999185 0.997675 0.999656 0.996588 0.996242 0.996117 0.994559 0.992057 0.997675 0.996283 0.996588 0.993126 0.996347 0.994559 0.993812 0.992865 0.999656 0.996588 1.00054 0.994793 0.994559 0.992057 0.992865 0.991581 0.996588 0.993126 0.994793 0.991749 0.999185 0.997675 0.999656 0.996588 1.00146 0.998276 1.00339 0.998646 0.997675 0.996283 0.996588 0.993126 0.998276 0.995817 0.998646 0.995573 0.999656 0.996588 1.00054 0.994793 1.00339 0.998646 1.00596 0.998867 0.996588 0.993126 0.994793 0.991749 0.998646 0.995573 0.998867 0.990465 0.997197 0.995981 0.995634 0.994733 0.999751 0.998957 0.998401 0.997416 0.995981 0.996879 0.994733 0.995939 0.998957 0.997024 0.997416 0.995007 0.995634 0.994733 0.997185 0.996242 0.998401 0.997416 0.999185 0.997675 0.994733 0.995939 0.996242 0.996117 0.997416 0.995007 0.997675 0.996283 0.999751 0.998957 0.998401 0.997416 0.999114 1.00079 0.998732 0.997263 0.998957 0.997024 0.997416 0.995007 1.00079 0.997004 0.997263 0.997096 0.998401 0.997416 0.999185 0.997675 0.998732 0.997263 1.00146 0.998276 0.997416 0.995007 0.997675 0.996283 0.997263 0.997096 0.998276 0.995817 1.00147 0.999562 1.0034 0.999484 1.00043 0.998466 1.00065 0.997017 0.999562 0.996 0.999484 0.995113 0.998466 0.99648 0.997017 0.99498 1.0034 0.999484 1.00514 0.999441 1.00065 0.997017 1.0007 0.997641 0.999484 0.995113 0.999441 0.993596 0.997017 0.99498 0.997641 0.997546 1.00043 0.998466 1.00065 0.997017 0.997825 0.99687 0.995153 0.994991 0.998466 0.99648 0.997017 0.99498 0.99687 0.99473 0.994991 0.992876 1.00065 0.997017 1.0007 0.997641 0.995153 0.994991 0.991375 0.994201 0.997017 0.99498 0.997641 0.997546 0.994991 0.992876 0.994201 0.992986 0.996 0.996051 0.995113 0.994108 0.99648 0.997279 0.99498 0.992611 0.996051 0.996555 0.994108 0.99241 0.997279 0.996458 0.992611 0.993805 0.995113 0.994108 0.993596 0.993934 0.99498 0.992611 0.997546 0.987883 0.994108 0.99241 0.993934 0.989691 0.992611 0.993805 0.987883 0.992533 0.99648 0.997279 0.99498 0.992611 0.99473 0.995239 0.992876 0.990783 0.997279 0.996458 0.992611 0.993805 0.995239 0.996103 0.990783 0.993422 0.99498 0.992611 0.997546 0.987883 0.992876 0.990783 0.992986 0.99275 0.992611 0.993805 0.987883 0.992533 0.990783 0.993422 0.99275 0.986366 0.997825 0.99687 0.995153 0.994991 0.99681 0.994887 0.993892 0.991756 0.99687 0.99473 0.994991 0.992876 0.994887 0.995239 0.991756 0.990783 0.995153 0.994991 0.991375 0.994201 0.993892 0.991756 0.995954 0.991768 0.994991 0.992876 0.994201 0.992986 0.991756 0.990783 0.991768 0.99275 0.99681 0.994887 0.993892 0.991756 0.996043 0.99596 0.990569 0.993821 0.994887 0.995239 0.991756 0.990783 0.99596 0.996103 0.993821 0.993422 0.993892 0.991756 0.995954 0.991768 0.990569 0.993821 0.990049 0.990746 0.991756 0.990783 0.991768 0.99275 0.993821 0.993422 0.990746 0.986366 1.00147 0.999562 1.00043 0.998466 1.00002 0.998335 0.999693 0.997992 0.999562 0.996 0.998466 0.99648 0.998335 0.996051 0.997992 0.997279 1.00043 0.998466 0.997825 0.99687 0.999693 0.997992 0.99681 0.994887 0.998466 0.99648 0.99687 0.99473 0.997992 0.997279 0.994887 0.995239 1.00002 0.998335 0.999693 0.997992 0.999114 0.999351 0.999179 0.998762 0.998335 0.996051 0.997992 0.997279 0.999351 0.996555 0.998762 0.996458 0.999693 0.997992 0.99681 0.994887 0.999179 0.998762 0.996043 0.99596 0.997992 0.997279 0.994887 0.995239 0.998762 0.996458 0.99596 0.996103 1.00078 0.999722 1.00381 1.00097 0.999084 0.997528 1.00066 0.99848 0.999722 0.997551 1.00097 0.996933 0.997528 0.994745 0.99848 0.994767 1.00381 1.00097 1.00534 1.00045 1.00066 0.99848 0.999895 0.996917 1.00097 0.996933 1.00045 0.99533 0.99848 0.994767 0.996917 0.992252 0.999084 0.997528 1.00066 0.99848 0.995534 0.994849 0.995632 0.994336 0.997528 0.994745 0.99848 0.994767 0.994849 0.994636 0.994336 0.994182 1.00066 0.99848 0.999895 0.996917 0.995632 0.994336 0.993578 0.991548 0.99848 0.994767 0.996917 0.992252 0.994336 0.994182 0.991548 0.994097 0.997788 0.998418 0.993673 0.992524 0.996784 0.996183 0.995088 0.994151 0.998418 0.994833 0.992524 0.992634 0.996183 0.997231 0.994151 0.995018 0.993673 0.992524 0.993348 0.990516 0.995088 0.994151 0.992521 0.99605 0.992524 0.992634 0.990516 0.987942 0.994151 0.995018 0.99605 0.995698 0.996784 0.996183 0.995088 0.994151 0.997551 0.994745 0.996933 0.994767 0.996183 0.997231 0.994151 0.995018 0.994745 0.994636 0.994767 0.994182 0.995088 0.994151 0.992521 0.99605 0.996933 0.994767 0.99533 0.992252 0.994151 0.995018 0.99605 0.995698 0.994767 0.994182 0.992252 0.994097 0.997004 0.996873 0.994589 0.992899 0.99747 0.996633 0.992251 0.994484 0.996873 0.995534 0.992899 0.995632 0.996633 0.994849 0.994484 0.994336 0.994589 0.992899 0.990189 0.989792 0.992251 0.994484 0.991506 0.991302 0.992899 0.995632 0.989792 0.993578 0.994484 0.994336 0.991302 0.991548 0.99747 0.996633 0.992251 0.994484 0.994833 0.997231 0.992634 0.995018 0.996633 0.994849 0.994484 0.994336 0.997231 0.994636 0.995018 0.994182 0.992251 0.994484 0.991506 0.991302 0.992634 0.995018 0.987942 0.995698 0.994484 0.994336 0.991302 0.991548 0.995018 0.994182 0.995698 0.994097 0.999114 1.00072 1.00079 0.999496 1.00071 0.999359 1.0001 0.998998 1.00072 1.00078 0.999496 0.999084 0.999359 0.999722 0.998998 0.997528 1.00079 0.999496 0.997004 0.996873 1.0001 0.998998 0.99747 0.996633 0.999496 0.999084 0.996873 0.995534 0.998998 0.997528 0.996633 0.994849 1.00071 0.999359 1.0001 0.998998 0.997788 0.996784 0.998418 0.996183 0.999359 0.999722 0.998998 0.997528 0.996784 0.997551 0.996183 0.994745 1.0001 0.998998 0.99747 0.996633 0.998418 0.996183 0.994833 0.997231 0.998998 0.997528 0.996633 0.994849 0.996183 0.994745 0.997231 0.994636 0.996992 0.