# vtk DataFile Version 3.0
#This file was generated by the deal.II library on 2025/4/17 at 14:22:48
ASCII
DATASET UNSTRUCTURED_GRID

POINTS 8192 double
-0.351296 0.000427734 -0.357285
-0.459717 -0.00128031 -0.301563
-0.526567 -0.00967423 -0.532556
-0.637099 -0.00950641 -0.427157
-0.41211 -0.116913 -0.30327
-0.505626 -0.105377 -0.261598
-0.589063 -0.165429 -0.435295
-0.674903 -0.144115 -0.359444
-0.459717 -0.00128031 -0.301563
-0.566297 0.000374615 -0.238502
-0.637099 -0.00950641 -0.427157
-0.741124 -0.00532679 -0.314257
-0.505626 -0.105377 -0.261598
-0.597754 -0.0910216 -0.214853
-0.674903 -0.144115 -0.359444
-0.756639 -0.12031 -0.279279
-0.526567 -0.00967423 -0.532556
-0.637099 -0.00950641 -0.427157
-0.704955 0.00036939 -0.710705
-0.819433 -0.00250658 -0.551634
-0.589063 -0.165429 -0.435295
-0.674903 -0.144115 -0.359444
-0.771709 -0.202308 -0.566866
-0.849572 -0.173696 -0.454852
-0.637099 -0.00950641 -0.427157
-0.741124 -0.00532679 -0.314257
-0.819433 -0.00250658 -0.551634
-0.921112 0.000341234 -0.385235
-0.674903 -0.144115 -0.359444
-0.756639 -0.12031 -0.279279
-0.849572 -0.173696 -0.454852
-0.920074 -0.142511 -0.339613
-0.41211 -0.116913 -0.30327
-0.505626 -0.105377 -0.261598
-0.589063 -0.165429 -0.435295
-0.674903 -0.144115 -0.359444
-0.468874 -0.234749 -0.238549
-0.548183 -0.210269 -0.214069
-0.642664 -0.319163 -0.322962
-0.706279 -0.278185 -0.281985
-0.505626 -0.105377 -0.261598
-0.597754 -0.0910216 -0.214853
-0.674903 -0.144115 -0.359444
-0.756639 -0.12031 -0.279279
-0.548183 -0.210269 -0.214069
-0.62652 -0.183461 -0.18656
-0.706279 -0.278185 -0.281985
-0.767495 -0.235797 -0.238896
-0.589063 -0.165429 -0.435295
-0.674903 -0.144115 -0.359444
-0.771709 -0.202308 -0.566866
-0.849572 -0.173696 -0.454852
-0.642664 -0.319163 -0.322962
-0.706279 -0.278185 -0.281985
-0.822482 -0.398639 -0.402182
-0.869061 -0.341891 -0.345433
-0.674903 -0.144115 -0.359444
-0.756639 -0.12031 -0.279279
-0.849572 -0.173696 -0.454852
-0.920074 -0.142511 -0.339613
-0.706279 -0.278185 -0.281985
-0.767495 -0.235797 -0.238896
-0.869061 -0.341891 -0.345433
-0.911929 -0.284604 -0.287463
-0.566297 0.000374615 -0.238502
-0.5338 -0.0020645 -0.117701
-0.741124 -0.00532679 -0.314257
-0.746282 -0.0100769 -0.160814
-0.597754 -0.0910216 -0.214853
-0.567321 -0.105518 -0.107746
-0.756639 -0.12031 -0.279279
-0.754513 -0.142006 -0.144234
-0.5338 -0.0020645 -0.117701
-0.496796 0.000420023 -0.000797329
-0.746282 -0.0100769 -0.160814
-0.74248 -0.00952127 -0.0107386
-0.567321 -0.105518 -0.107746
-0.533677 -0.115431 -0.0032405
-0.754513 -0.142006 -0.144234
-0.746158 -0.158544 -0.0112529
-0.741124 -0.00532679 -0.314257
-0.746282 -0.0100769 -0.160814
-0.921112 0.000341234 -0.385235
-0.9661 -0.00295523 -0.192248
-0.756639 -0.12031 -0.279279
-0.754513 -0.142006 -0.144234
-0.920074 -0.142511 -0.339613
-0.947938 -0.169537 -0.17152
-0.746282 -0.0100769 -0.160814
-0.74248 -0.00952127 -0.0107386
-0.9661 -0.00295523 -0.192248
-0.996383 0.000439171 -0.000693041
-0.754513 -0.142006 -0.144234
-0.746158 -0.158544 -0.0112529
-0.947938 -0.169537 -0.17152
-0.965784 -0.190201 -0.00402283
-0.597754 -0.0910216 -0.214853
-0.567321 -0.105518 -0.107746
-0.756639 -0.12031 -0.279279
-0.754513 -0.142006 -0.144234
-0.62652 -0.183461 -0.18656
-0.59736 -0.21121 -0.0929464
-0.767495 -0.235797 -0.238896
-0.756244 -0.275636 -0.122235
-0.567321 -0.105518 -0.107746
-0.533677 -0.115431 -0.0032405
-0.754513 -0.142006 -0.144234
-0.746158 -0.158544 -0.0112529
-0.59736 -0.21121 -0.0929464
-0.565833 -0.234735 -0.000662349
-0.756244 -0.275636 -0.122235
-0.74066 -0.31049 -0.00636375
-0.756639 -0.12031 -0.279279
-0.754513 -0.142006 -0.144234
-0.920074 -0.142511 -0.339613
-0.947938 -0.169537 -0.17152
-0.767495 -0.235797 -0.238896
-0.756244 -0.275636 -0.122235
-0.911929 -0.284604 -0.287463
-0.919509 -0.33617 -0.144199
-0.754513 -0.142006 -0.144234
-0.746158 -0.158544 -0.0112529
-0.947938 -0.169537 -0.17152
-0.965784 -0.190201 -0.00402283
-0.756244 -0.275636 -0.122235
-0.74066 -0.31049 -0.00636375
-0.919509 -0.33617 -0.144199
-0.920343 -0.381626 -0.000572624
-0.468874 -0.234749 -0.238549
-0.548183 -0.210269 -0.214069
-0.642664 -0.319163 -0.322962
-0.706279 -0.278185 -0.281985
-0.411706 -0.29809 -0.119187
-0.505223 -0.256418 -0.107651
-0.588659 -0.430115 -0.167702
-0.6745 -0.354264 -0.146389
-0.548183 -0.210269 -0.214069
-0.62652 -0.183461 -0.18656
-0.706279 -0.278185 -0.281985
-0.767495 -0.235797 -0.238896
-0.505223 -0.256418 -0.107651
-0.59736 -0.21121 -0.0929464
-0.6745 -0.354264 -0.146389
-0.756244 -0.275636 -0.122235
-0.642664 -0.319163 -0.322962
-0.706279 -0.278185 -0.281985
-0.822482 -0.398639 -0.402182
-0.869061 -0.341891 -0.345433
-0.588659 -0.430115 -0.167702
-0.6745 -0.354264 -0.146389
-0.77101 -0.561729 -0.204289
-0.848873 -0.449715 -0.175677
-0.706279 -0.278185 -0.281985
-0.767495 -0.235797 -0.238896
-0.869061 -0.341891 -0.345433
-0.911929 -0.284604 -0.287463
-0.6745 -0.354264 -0.146389
-0.756244 -0.275636 -0.122235
-0.848873 -0.449715 -0.175677
-0.919509 -0.33617 -0.144199
-0.411706 -0.29809 -0.119187
-0.505223 -0.256418 -0.107651
-0.588659 -0.430115 -0.167702
-0.6745 -0.354264 -0.146389
-0.350958 -0.351715 -0.00073182
-0.45938 -0.295993 -0.00243987
-0.52623 -0.526986 -0.0108338
-0.636762 -0.421587 -0.010666
-0.505223 -0.256418 -0.107651
-0.59736 -0.21121 -0.0929464
-0.6745 -0.354264 -0.146389
-0.756244 -0.275636 -0.122235
-0.45938 -0.295993 -0.00243987
-0.565833 -0.234735 -0.000662349
-0.636762 -0.421587 -0.010666
-0.74066 -0.31049 -0.00636375
-0.588659 -0.430115 -0.167702
-0.6745 -0.354264 -0.146389
-0.77101 -0.561729 -0.204289
-0.848873 -0.449715 -0.175677
-0.52623 -0.526986 -0.0108338
-0.636762 -0.421587 -0.010666
-0.704203 -0.70503 -0.000639809
-0.818681 -0.545958 -0.00351578
-0.6745 -0.354264 -0.146389
-0.756244 -0.275636 -0.122235
-0.848873 -0.449715 -0.175677
-0.919509 -0.33617 -0.144199
-0.636762 -0.421587 -0.010666
-0.74066 -0.31049 -0.00636375
-0.818681 -0.545958 -0.00351578
-0.920343 -0.381626 -0.000572624
-0.351296 0.000427734 -0.357285
-0.459717 -0.00128031 -0.301563
-0.41211 -0.116913 -0.30327
-0.505626 -0.105377 -0.261598
-0.172152 -0.013999 -0.176928
-0.351713 -0.0136712 -0.155183
-0.292428 -0.154373 -0.157668
-0.430023 -0.13364 -0.136936
-0.459717 -0.00128031 -0.301563
-0.566297 0.000374615 -0.238502
-0.505626 -0.105377 -0.261598
-0.597754 -0.0910216 -0.214853
-0.351713 -0.0136712 -0.155183
-0.5338 -0.0020645 -0.117701
-0.430023 -0.13364 -0.136936
-0.567321 -0.105518 -0.107746
-0.41211 -0.116913 -0.30327
-0.505626 -0.105377 -0.261598
-0.468874 -0.234749 -0.238549
-0.548183 -0.210269 -0.214069
-0.292428 -0.154373 -0.157668
-0.430023 -0.13364 -0.136936
-0.411706 -0.29809 -0.119187
-0.505223 -0.256418 -0.107651
-0.505626 -0.105377 -0.261598
-0.597754 -0.0910216 -0.214853
-0.548183 -0.210269 -0.214069
-0.62652 -0.183461 -0.18656
-0.430023 -0.13364 -0.136936
-0.567321 -0.105518 -0.107746
-0.505223 -0.256418 -0.107651
-0.59736 -0.21121 -0.0929464
-0.172152 -0.013999 -0.176928
-0.351713 -0.0136712 -0.155183
-0.292428 -0.154373 -0.157668
-0.430023 -0.13364 -0.136936
0.00152319 0.000591942 -0.00116027
-0.242273 -0.0120356 -0.0137878
-0.172611 -0.173542 -0.0156602
-0.352171 -0.151797 -0.0153324
-0.351713 -0.0136712 -0.155183
-0.5338 -0.0020645 -0.117701
-0.430023 -0.13364 -0.136936
-0.567321 -0.105518 -0.107746
-0.242273 -0.0120356 -0.0137878
-0.496796 0.000420023 -0.000797329
-0.352171 -0.151797 -0.0153324
-0.533677 -0.115431 -0.0032405
-0.292428 -0.154373 -0.157668
-0.430023 -0.13364 -0.136936
-0.411706 -0.29809 -0.119187
-0.505223 -0.256418 -0.107651
-0.172611 -0.173542 -0.0156602
-0.352171 -0.151797 -0.0153324
-0.350958 -0.351715 -0.00073182
-0.45938 -0.295993 -0.00243987
-0.430023 -0.13364 -0.136936
-0.567321 -0.105518 -0.107746
-0.505223 -0.256418 -0.107651
-0.59736 -0.21121 -0.0929464
-0.352171 -0.151797 -0.0153324
-0.533677 -0.115431 -0.0032405
-0.45938 -0.295993 -0.00243987
-0.565833 -0.234735 -0.000662349
0.351706 -0.000119613 0.357061
0.409335 0.117541 0.288826
0.535571 -0.0282974 0.540926
0.594915 0.137139 0.405864
0.458146 -0.00437074 0.294596
0.501733 0.102279 0.246528
0.639806 -0.0302355 0.421299
0.676411 0.118359 0.33268
0.409335 0.117541 0.288826
0.469219 0.235045 0.238284
0.594915 0.137139 0.405864
0.658861 0.311608 0.314819
0.501733 0.102279 0.246528
0.546393 0.207821 0.211058
0.676411 0.118359 0.33268
0.715427 0.269054 0.272275
0.535571 -0.0282974 0.540926
0.594915 0.137139 0.405864
0.705431 -7.13152e-05 0.710487
0.756129 0.193246 0.52307
0.639806 -0.0302355 0.421299
0.676411 0.118359 0.33268
0.806196 -0.0162188 0.547874
0.829907 0.16163 0.425118
0.594915 0.137139 0.405864
0.658861 0.311608 0.314819
0.756129 0.193246 0.52307
0.81434 0.407619 0.410498
0.676411 0.118359 0.33268
0.715427 0.269054 0.272275
0.829907 0.16163 0.425118
0.857749 0.346108 0.349005
0.458146 -0.00437074 0.294596
0.501733 0.102279 0.246528
0.639806 -0.0302355 0.421299
0.676411 0.118359 0.33268
0.566642 -0.000117979 0.238281
0.596104 0.0929772 0.208453
0.751513 -0.0139355 0.306763
0.764233 0.108221 0.261435
0.501733 0.102279 0.246528
0.546393 0.207821 0.211058
0.676411 0.118359 0.33268
0.715427 0.269054 0.272275
0.596104 0.0929772 0.208453
0.625977 0.184581 0.187169
0.764233 0.108221 0.261435
0.778289 0.22896 0.231545
0.639806 -0.0302355 0.421299
0.676411 0.118359 0.33268
0.806196 -0.0162188 0.547874
0.829907 0.16163 0.425118
0.751513 -0.0139355 0.306763
0.764233 0.108221 0.261435
0.92149 -9.83353e-05 0.384978
0.915135 0.143572 0.325061
0.676411 0.118359 0.33268
0.715427 0.269054 0.272275
0.829907 0.16163 0.425118
0.857749 0.346108 0.349005
0.764233 0.108221 0.261435
0.778289 0.22896 0.231545
0.915135 0.143572 0.325061
0.911317 0.286353 0.288619
0.469219 0.235045 0.238284
0.408801 0.284185 0.119241
0.658861 0.311608 0.314819
0.594382 0.401241 0.138826
0.546393 0.207821 0.211058
0.5012 0.241888 0.103977
0.715427 0.269054 0.272275
0.675878 0.32805 0.120051
0.408801 0.284185 0.119241
0.351161 0.352033 0.000399408
0.594382 0.401241 0.138826
0.535026 0.535899 -0.0277784
[...]
POINT_DATA 8192
SCALARS A_0 double 1
LOOKUP_TABLE default
0.998598 1.00219 1.00218 1.00248 0.998478 0.996072 0.999584 0.9952 1.00219 0.996497 1.00248 0.994862 0.996072 0.991433 0.9952 0.990154 1.00218 1.00248 1.00398 1.00215 0.999584 0.9952 0.999272 0.99442 1.00248 0.994862 1.00215 0.995661 0.9952 0.990154 0.99442 0.989837 0.998478 0.996072 0.999584 0.9952 0.999108 0.994904 0.99801 0.993686 0.996072 0.991433 0.9952 0.990154 0.994904 0.992995 0.993686 0.992131 0.999584 0.9952 0.999272 0.99442 0.99801 0.993686 0.997196 0.99265 0.9952 0.990154 0.99442 0.989837 0.993686 0.992131 0.99265 0.991961 0.996497 0.994838 0.994862 0.991369 0.991433 0.991 0.990154 0.987744 0.994838 0.996615 0.991369 0.989309 0.991 0.991985 0.987744 0.986048 0.994862 0.991369 0.995661 0.992157 0.990154 0.987744 0.989837 0.987348 0.991369 0.989309 0.992157 0.989854 0.987744 0.986048 0.987348 0.987573 0.991433 0.991 0.990154 0.987744 0.992995 0.994116 0.992131 0.992237 0.991 0.991985 0.987744 0.986048 0.994116 0.99462 0.992237 0.991975 0.990154 0.987744 0.989837 0.987348 0.992131 0.992237 0.991961 0.99268 0.987744 0.986048 0.987348 0.987573 0.992237 0.991975 0.99268 0.992834 0.999108 0.994904 0.99801 0.993686 0.996606 0.99466 0.991603 0.990041 0.994904 0.992995 0.993686 0.992131 0.99466 0.994116 0.990041 0.992237 0.99801 0.993686 0.997196 0.99265 0.991603 0.990041 0.988969 0.989829 0.993686 0.992131 0.99265 0.991961 0.990041 0.992237 0.989829 0.99268 0.996606 0.99466 0.991603 0.990041 0.996185 0.994344 0.990846 0.987848 0.99466 0.994116 0.990041 0.992237 0.994344 0.99462 0.987848 0.991975 0.991603 0.990041 0.988969 0.989829 0.990846 0.987848 0.991302 0.989462 0.990041 0.992237 0.989829 0.99268 0.987848 0.991975 0.989462 0.992834 0.998598 1.00219 0.998478 0.996072 0.996979 0.997716 0.996357 0.992878 1.00219 0.996497 0.996072 0.991433 0.997716 0.994838 0.992878 0.991 0.998478 0.996072 0.999108 0.994904 0.996357 0.992878 0.996606 0.99466 0.996072 0.991433 0.994904 0.992995 0.992878 0.991 0.99466 0.994116 0.996979 0.997716 0.996357 0.992878 0.994054 0.994488 0.994205 0.991609 0.997716 0.994838 0.992878 0.991 0.994488 0.996615 0.991609 0.991985 0.996357 0.992878 0.996606 0.99466 0.994205 0.991609 0.996185 0.994344 0.992878 0.991 0.99466 0.994116 0.991609 0.991985 0.994344 0.99462 0.999609 0.998291 1.0038 0.999044 0.999275 0.995808 1.00032 0.994975 0.998291 0.995768 0.999044 0.995007 0.995808 0.994813 0.994975 0.993535 1.0038 0.999044 1.00388 0.998839 1.00032 0.994975 0.999917 0.994548 0.999044 0.995007 0.998839 0.994881 0.994975 0.993535 0.994548 0.993157 0.999275 0.995808 1.00032 0.994975 0.993378 0.991354 0.992987 0.990266 0.995808 0.994813 0.994975 0.993535 0.991354 0.993308 0.990266 0.992177 1.00032 0.994975 0.999917 0.994548 0.992987 0.990266 0.993393 0.991004 0.994975 0.993535 0.994548 0.993157 0.990266 0.992177 0.991004 0.991837 0.995768 0.99582 0.995007 0.990162 0.994813 0.993509 0.993535 0.988395 0.99582 0.997912 0.990162 0.99273 0.993509 0.991967 0.988395 0.98539 0.995007 0.990162 0.994881 0.991774 0.993535 0.988395 0.993157 0.990256 0.990162 0.99273 0.991774 0.994966 0.988395 0.98539 0.990256 0.986556 0.994813 0.993509 0.993535 0.988395 0.993308 0.994459 0.992177 0.992445 0.993509 0.991967 0.988395 0.98539 0.994459 0.994871 0.992445 0.992244 0.993535 0.988395 0.993157 0.990256 0.992177 0.992445 0.991837 0.993593 0.988395 0.98539 0.990256 0.986556 0.992445 0.992244 0.993593 0.995115 0.993378 0.991354 0.992987 0.990266 0.992544 0.993141 0.990041 0.990453 0.991354 0.993308 0.990266 0.992177 0.993141 0.994459 0.990453 0.992445 0.992987 0.990266 0.993393 0.991004 0.990041 0.990453 0.991735 0.992133 0.990266 0.992177 0.991004 0.991837 0.990453 0.992445 0.992133 0.993593 0.992544 0.993141 0.990041 0.990453 0.992611 0.994538 0.988382 0.988629 0.993141 0.994459 0.990453 0.992445 0.994538 0.994871 0.988629 0.992244 0.990041 0.990453 0.991735 0.992133 0.988382 0.988629 0.989456 0.990544 0.990453 0.992445 0.992133 0.993593 0.988629 0.992244 0.990544 0.995115 0.999609 0.998291 0.999275 0.995808 0.997457 0.995522 0.9952 0.993976 0.998291 0.995768 0.995808 0.994813 0.995522 0.99582 0.993976 0.993509 0.999275 0.995808 0.993378 0.991354 0.9952 0.993976 0.992544 0.993141 0.995808 0.994813 0.991354 0.993308 0.993976 0.993509 0.993141 0.994459 0.997457 0.995522 0.9952 0.993976 0.994054 1.00662 0.998559 0.990827 0.995522 0.99582 0.993976 0.993509 1.00662 0.997912 0.990827 0.991967 0.9952 0.993976 0.992544 0.993141 0.998559 0.990827 0.992611 0.994538 0.993976 0.993509 0.993141 0.994459 0.990827 0.991967 0.994538 0.994871 1.01008 1.0078 1.01341 1.01421 1.00782 1.00708 1.0145 1.01284 1.0078 1.01057 1.01421 1.01376 1.00708 1.00947 1.01284 1.01134 1.01341 1.01421 1.01134 1.01336 1.0145 1.01284 1.0103 1.01002 1.01421 1.01376 1.01336 1.01156 1.01284 1.01134 1.01002 1.01012 1.00782 1.00708 1.0145 1.01284 1.01124 1.01051 1.01439 1.01361 1.00708 1.00947 1.01284 1.01134 1.01051 1.01111 1.01361 1.01189 1.0145 1.01284 1.0103 1.01002 1.01439 1.01361 1.00912 1.01145 1.01284 1.01134 1.01002 1.01012 1.01361 1.01189 1.01145 1.01009 1.01057 1.00657 1.01376 1.00844 1.00947 1.00543 1.01134 1.00804 1.00657 1.00129 1.00844 1.00132 1.00543 1.00006 1.00804 1.00382 1.01376 1.00844 1.01156 1.00922 1.01134 1.00804 1.01012 1.00953 1.00844 1.00132 1.00922 1.00427 1.00804 1.00382 1.00953 1.00435 1.00947 1.00543 1.01134 1.00804 1.01111 1.00959 1.01189 1.01064 1.00543 1.00006 1.00804 1.00382 1.00959 1.00608 1.01064 1.00882 1.01134 1.00804 1.01012 1.00953 1.01189 1.01064 1.01009 1.0093 1.00804 1.00382 1.00953 1.00435 1.01064 1.00882 1.0093 1.00774 1.01124 1.01051 1.01439 1.01361 1.00652 1.00638 1.00874 1.0097 1.01051 1.01111 1.01361 1.01189 1.00638 1.00959 1.0097 1.01064 1.01439 1.01361 1.00912 1.01145 1.00874 1.0097 1.0092 1.0101 1.01361 1.01189 1.01145 1.01009 1.0097 1.01064 1.0101 1.0093 1.00652 1.00638 1.00874 1.0097 0.999927 1.00062 1.00178 1.0034 1.00638 1.00959 1.0097 1.01064 1.00062 1.00608 1.0034 1.00882 1.00874 1.0097 1.0092 1.0101 1.00178 1.0034 1.00357 1.00472 1.0097 1.01064 1.0101 1.0093 1.0034 1.00882 1.00472 1.00774 1.01008 1.0078 1.00782 1.00708 0.991583 0.998368 0.998147 0.9963 1.0078 1.01057 1.00708 1.00947 0.998368 1.00657 0.9963 1.00543 1.00782 1.00708 1.01124 1.01051 0.998147 0.9963 1.00652 1.00638 1.00708 1.00947 1.01051 1.01111 0.9963 1.00543 1.00638 1.00959 0.991583 0.998368 0.998147 0.9963 0.994054 0.985526 0.990363 0.996299 0.998368 1.00657 0.9963 1.00543 0.985526 1.00129 0.996299 1.00006 0.998147 0.9963 1.00652 1.00638 0.990363 0.996299 0.999927 1.00062 0.9963 1.00543 1.00638 1.00959 0.996299 1.00006 1.00062 1.00608 1.00933 1.00999 1.01591 1.01574 1.00585 1.00724 1.01195 1.01168 1.00999 1.01284 1.01574 1.01476 1.00724 1.01072 1.01168 1.01329 1.01591 1.01574 1.01892 1.0158 1.01195 1.01168 1.01759 1.01488 1.01574 1.01476 1.0158 1.01084 1.01168 1.01329 1.01488 1.0111 1.00585 1.00724 1.01195 1.01168 1.00945 1.00984 1.01187 1.01294 1.00724 1.01072 1.01168 1.01329 1.00984 1.01191 1.01294 1.01494 1.01195 1.01168 1.01759 1.01488 1.01187 1.01294 1.01187 1.01484 1.01168 1.01329 1.01488 1.0111 1.01294 1.01494 1.01484 1.01575 1.01284 1.00728 1.01476 1.00919 1.01072 1.00579 1.01329 1.0078 1.00728 0.998622 1.00919 1.0019 1.00579 1.00036 1.0078 1.00485 1.01476 1.00919 1.01084 1.01186 1.01329 1.0078 1.0111 1.00911 1.00919 1.0019 1.01186 1.00146 1.0078 1.00485 1.00911 1.0053 1.01072 1.00579 1.01329 1.0078 1.01191 1.00982 1.01494 1.01319 1.00579 1.00036 1.0078 1.00485 1.00982 1.007 1.01319 1.0107 1.01329 1.0078 1.0111 1.00911 1.01494 1.01319 1.01575 1.01568 1.0078 1.00485 1.00911 1.0053 1.01319 1.0107 1.01568 1.01305 1.00945 1.00984 1.01187 1.01294 1.00465 1.00661 1.00674 1.00914 1.00984 1.01191 1.01294 1.01494 1.00661 1.00982 1.00914 1.01319 1.01187 1.01294 1.01187 1.01484 1.00674 1.00914 1.0039 1.0112 1.01294 1.01494 1.01484 1.01575 1.00914 1.01319 1.0112 1.01568 1.00465 1.00661 1.00674 1.00914 0.996557 1.00162 1.0003 1.00552 1.00661 1.00982 1.00914 1.01319 1.00162 1.007 1.00552 1.0107 1.00674 1.00914 1.0039 1.0112 1.0003 1.00552 0.999378 1.00401 1.00914 1.01319 1.0112 1.01568 1.00552 1.0107 1.00401 1.01305 1.00933 1.00999 1.00585 1.00724 0.99468 0.998929 0.994616 0.996181 1.00999 1.01284 1.00724 1.01072 0.998929 1.00728 0.996181 1.00579 1.00585 1.00724 1.00945 1.00984 0.994616 0.996181 1.00465 1.00661 1.00724 1.01072 1.00984 1.01191 0.996181 1.00579 1.00661 1.00982 0.99468 0.998929 0.994616 0.996181 0.994054 0.98926 0.993342 0.992751 0.998929 1.00728 0.996181 1.00579 0.98926 0.998622 0.992751 1.00036 0.994616 0.996181 1.00465 1.00661 0.993342 0.992751 0.996557 1.00162 0.996181 1.00579 1.00661 1.00982 0.992751 1.00036 1.00162 1.007 0.999845 0.999462 1.00236 0.999824 0.999346 0.996163 1.00002 0.995124 0.999462 0.999697 0.999824 0.998646 0.996163 0.995525 0.995124 0.994037 1.00236 0.999824 1.00479 1.0003 1.00002 0.995124 0.999877 0.995536 0.999824 0.998646 1.0003 0.99868 0.995124 0.994037 0.995536 0.994719 0.999346 0.996163 1.00002 0.995124 0.993752 0.991413 0.992833 0.989739 0.996163 0.995525 0.995124 0.994037 0.991413 0.993156 0.989739 0.991601 1.00002 0.995124 0.999877 0.995536 0.992833 0.989739 0.992445 0.98931 0.995124 0.994037 0.995536 0.994719 0.989739 0.991601 0.98931 0.991716 0.999697 0.995374 0.998646 0.991053 0.995525 0.993736 0.994037 0.989084 0.995374 0.995778 0.991053 0.9897 0.993736 0.992235 0.989084 0.985417 0.998646 0.991053 0.99868 0.992134 0.994037 0.989084 0.994719 0.991839 0.991053 0.9897 0.992134 0.991387 0.989084 0.985417 0.991839 0.988002 0.995525 0.993736 0.994037 0.989084 0.993156 0.99394 0.991601 0.9911 0.993736 0.992235 0.989084 0.985417 0.99394 0.994468 0.9911 0.990966 0.994037 0.989084 0.994719 0.991839 0.991601 0.9911 0.991716 0.990948 0.989084 0.985417 0.991839 0.988002 0.9911 0.990966 0.990948 0.993641 0.993752 0.991413 0.992833 0.989739 0.991856 0.99213 0.988894 0.988419 0.991413 0.993156 0.989739 0.991601 0.99213 0.99394 0.988419 0.9911 0.992833 0.989739 0.992445 0.98931 0.988894 0.988419 0.988623 0.988068 0.989739 0.991601 0.98931 0.991716 0.988419 0.9911 0.988068 0.990948 0.991856 0.99213 0.988894 0.988419 0.99227 0.993862 0.987756 0.988887 0.99213 0.99394 0.988419 0.9911 0.993862 0.994468 0.988887 0.990966 0.988894 0.988419 0.988623 0.988068 0.987756 0.988887 0.989322 0.989833 0.988419 0.9911 0.988068 0.990948 0.988887 0.990966 0.989833 0.993641 0.999845 0.999462 0.999346 0.996163 0.992891 0.995946 0.994296 0.993468 0.999462 0.999697 0.996163 0.995525 0.995946 0.995374 0.993468 0.993736 0.999346 0.996163 0.993752 0.991413 0.994296 0.993468 0.991856 0.99213 0.996163 0.995525 0.991413 0.993156 0.993468 0.993736 0.99213 0.99394 0.992891 0.995946 0.994296 0.993468 0.994054 0.999979 0.992807 0.991687 0.995946 0.995374 0.993468 0.993736 0.999979 0.995778 0.991687 0.992235 0.994296 0.993468 0.991856 0.99213 0.992807 0.991687 0.99227 0.993862 0.993468 0.993736 0.99213 0.99394 0.991687 0.992235 0.993862 0.994468 0.996509 0.996222 0.993598 0.99361 0.994572 0.996746 0.991338 0.99504 0.996222 0.994568 0.99361 0.994204 0.996746 0.993309 0.99504 0.993543 0.993598 0.99361 0.991147 0.994547 0.991338 0.99504 0.990254 0.995084 0.99361 0.994204 0.994547 0.995489 0.99504 0.993543 0.995084 0.995458 0.994572 0.996746 0.991338 0.99504 0.99686 0.997799 0.993688 0.995946 0.996746 0.993309 0.99504 0.993543 0.997799 0.993328 0.995946 0.992638 0.991338 0.99504 0.990254 0.995084 0.993688 0.995946 0.991532 0.996412 0.99504 0.993543 0.995084 0.995458 0.995946 0.992638 0.996412 0.994008 0.994568 0.997002 0.994204 1.00225 0.993309 0.994646 0.993543 0.999718 0.997002 0.996457 1.00225 1.00437 0.994646 0.996448 0.999718 1.00438 0.994204 1.00225 0.995489 1.00112 0.993543 0.999718 0.995458 0.998018 1.00225 1.00437 1.00112 1.00318 0.999718 1.00438 0.998018 1.00178 0.993309 0.994646 0.993543 0.999718 0.993328 0.991031 0.992638 0.990398 0.994646 0.996448 0.999718 1.00438 0.991031 0.990412 0.990398 0.991102 0.993543 0.999718 0.995458 0.998018 0.992638 0.990398 0.994008 0.989735 0.999718 1.00438 0.998018 1.00178 0.990398 0.991102 0.989735 0.990284 0.99686 0.997799 0.993688 0.995946 1.00071 0.998163 0.994298 0.992058 0.997799 0.993328 0.995946 0.992638 0.998163 0.991031 0.992058 0.990398 0.993688 0.995946 0.991532 0.996412 0.994298 0.992058 0.994015 0.992917 0.995946 0.992638 0.996412 0.994008 0.992058 0.990398 0.992917 0.989735 1.00071 0.998163 0.994298 0.992058 1.00098 0.998598 0.994547 0.99151 0.998163 0.991031 0.992058 0.990398 0.998598 0.990412 0.99151 0.991102 0.994298 0.992058 0.994015 0.992917 0.994547 0.99151 0.993893 0.991884 0.992058 0.990398 0.992917 0.989735 0.99151 0.991102 0.991884 0.990284 0.996509 0.996222 0.994572 0.996746 1.00201 0.999686 1.00129 1.00063 0.996222 0.994568 0.996746 0.993309 0.999686 0.997002 1.00063 0.994646 0.994572 0.996746 0.99686 0.997799 1.00129 1.00063 1.00071 0.998163 0.996746 0.993309 0.997799 0.993328 1.00063 0.994646 0.998163 0.991031 1.00201 0.999686 1.00129 1.00063 0.994054 1.00049 1.00711 1.00305 0.999686 0.997002 1.00063 0.994646 1.00049 0.996457 1.00305 0.996448 1.00129 1.00063 1.00071 0.998163 1.00711 1.00305 1.00098 0.998598 1.00063 0.994646 0.998163 0.991031 1.00305 0.996448 0.998598 0.990412 0.996509 0.994572 0.993598 0.991338 0.992207 0.989999 0.990317 0.987591 0.994572 0.99686 0.991338 0.993688 0.989999 0.992284 0.987591 0.990195 0.993598 0.991338 0.991147 0.990254 0.990317 0.987591 0.993186 0.991097 0.991338 0.993688 0.990254 0.991532 0.987591 0.990195 0.991097 0.991107 0.992207 0.989999 0.990317 0.987591 0.994027 0.992791 0.995361 0.993048 0.989999 0.992284 0.987591 0.990195 0.992791 0.992286 0.993048 0.991932 0.990317 0.987591 0.993186 0.991097 0.995361 0.993048 0.99601 0.994067 0.987591 0.990195 0.991097 0.991107 0.993048 0.991932 0.994067 0.993283 0.99686 1.00071 0.993688 0.994298 0.992284 0.995422 0.990195 0.992295 1.00071 1.00098 0.994298 0.994547 0.995422 0.995333 0.992295 0.991031 0.993688 0.994298 0.991532 0.994015 0.990195 0.992295 0.991107 0.993657 0.994298 0.994547 0.994015 0.993893 0.992295 0.991031 0.993657 0.99282 0.992284 0.995422 0.990195 0.992295 0.992286 0.99235 0.991932 0.991476 0.995422 0.995333 0.992295 0.991031 0.99235 0.990822 0.991476 0.991487 0.990195 0.992295 0.991107 0.993657 0.991932 0.991476 0.993283 0.991974 0.992295 0.991031 0.993657 0.99282 0.991476 0.991487 0.991974 0.991976 0.994027 0.992791 0.995361 0.993048 0.995041 0.993826 0.997489 0.99579 0.992791 0.992286 0.993048 0.991932 0.993826 0.99235 0.99579 0.991476 0.995361 0.993048 0.99601 0.994067 0.997489 0.99579 1.00003 0.996025 0.993048 0.991932 0.994067 0.993283 0.99579 0.991476 0.996025 0.991974 0.995041 0.993826 0.997489 0.99579 0.999927 0.993519 1.00178 0.996289 0.993826 0.99235 0.99579 0.991476 0.993519 0.990822 0.996289 0.991487 0.997489 0.99579 1.00003 0.996025 1.00178 0.996289 1.00357 0.99725 0.99579 0.991476 0.996025 0.991974 0.996289 0.991487 0.99725 0.991976 0.996509 0.994572 0.992207 0.989999 1.00201 1.00129 0.994324 0.994441 0.994572 0.99686 0.989999 0.992284 1.00129 1.00071 0.994441 0.995422 0.992207 0.989999 0.994027 0.992791 0.994324 0.994441 0.995041 0.993826 0.989999 0.992284 0.992791 0.992286 0.994441 0.995422 0.993826 0.99235 1.00201 1.00129 0.994324 0.994441 0.994054 1.00711 0.990363 0.99193 1.00129 1.00071 0.994441 0.995422 1.00711 1.00098 0.99193 0.995333 0.994324 0.994441 0.995041 0.993826 0.990363 0.99193 0.999927 0.993519 0.994441 0.995422 0.993826 0.99235 0.99193 0.995333 0.993519 0.990822 0.999609 0.999275 1.0038 1.00032 1.00177 0.998992 1.00323 0.998273 0.999275 0.993378 1.00032 0.992987 0.998992 0.99449 0.998273 0.993545 1.0038 1.00032 1.00388 0.999917 1.00323 0.998273 1.00162 0.998056 1.00032 0.992987 0.999917 0.993393 0.998273 0.993545 0.998056 0.994769 1.00177 0.998992 1.00323 0.998273 0.996089 0.994294 0.994219 0.992357 0.998992 0.99449 0.998273 0.993545 0.994294 0.993306 0.992357 0.991675 1.00323 0.998273 1.00162 0.998056 0.994219 0.992357 0.992422 0.992564 0.998273 0.993545 0.998056 0.994769 0.992357 0.991675 0.992564 0.992748 0.993378 0.992544 0.992987 0.990041 0.99449 0.994973 0.993545 0.990919 0.992544 0.992611 0.990041 0.988382 0.994973 0.995853 0.990919 0.990998 0.992987 0.990041 0.993393 0.991735 0.993545 0.990919 0.994769 0.990731 0.990041 0.988382 0.991735 0.989456 0.990919 0.990998 0.990731 0.992197 0.99449 0.994973 0.993545 0.990919 0.993306 0.994114 0.991675 0.991059 0.994973 0.995853 0.990919 0.990998 0.994114 0.995154 0.991059 0.991944 0.993545 0.990919 0.994769 0.990731 0.991675 0.991059 0.992748 0.992182 0.990919 0.990998 0.990731 0.992197 0.991059 0.991944 0.992182 0.990293 0.996089 0.994294 0.994219 0.992357 0.996432 0.994679 0.992404 0.990436 0.994294 0.993306 0.992357 0.991675 0.994679 0.994114 0.990436 0.991059 0.994219 0.992357 0.992422 0.992564 0.992404 0.990436 0.994955 0.992143 0.992357 0.991675 0.992564 0.992748 0.990436 0.991059 0.992143 0.992182 0.996432 0.994679 0.992404 0.990436 0.995778 0.997316 0.9897 0.992516 0.994679 0.994114 0.990436 0.991059 0.997316 0.995154 0.992516 0.991944 0.992404 0.990436 0.994955 0.992143 0.9897 0.992516 0.991387 0.993671 0.990436 0.991059 0.992143 0.992182 0.992516 0.991944 0.993671 0.990293 0.999609 0.999275 1.00177 0.998992 0.997457 0.9952 1.00092 0.998308 0.999275 0.993378 0.998992 0.99449 0.9952 0.992544 0.998308 0.994973 1.00177 0.998992 0.996089 0.994294 1.00092 0.998308 0.996432 0.994679 0.998992 0.99449 0.994294 0.993306 0.998308 0.994973 0.994679 0.994114 0.997457 0.9952 1.00092 0.998308 0.994054 0.998559 0.999979 1.00207 0.9952 0.992544 0.998308 0.994973 0.998559 0.992611 1.00207 0.995853 1.00092 0.998308 0.996432 0.994679 0.999979 1.00207 0.995778 0.997316 0.998308 0.994973 0.994679 0.994114 1.00207 0.995853 0.997316 0.995154 0.996457 0.997827 1.00437 1.00332 0.996448 0.99333 1.00438 1.00029 0.997827 0.995721 1.00332 0.996417 0.99333 0.98979 1.00029 0.990545 1.00437 1.00332 1.00318 1.00122 1.00438 1.00029 1.00178 0.996704 1.00332 0.996417 1.00122 0.995382 1.00029 0.990545 0.996704 0.989678 0.996448 0.99333 1.00438 1.00029 0.990412 0.98923 0.991102 0.989061 0.99333 0.98979 1.00029 0.990545 0.98923 0.990552 0.989061 0.989255 1.00438 1.00029 1.00178 0.996704 0.991102 0.989061 0.990284 0.988467 1.00029 0.990545 0.996704 0.989678 0.989061 0.989255 0.988467 0.990062 0.997912 1.00216 0.99273 0.994625 0.997066 0.99758 0.992077 0.99211 1.00216 1.00026 0.994625 0.9955 0.99758 0.999227 0.99211 0.996248 0.99273 0.994625 0.994966 0.995547 0.992077 0.99211 0.993418 0.994423 0.994625 0.9955 0.995547 0.994287 0.99211 0.996248 0.994423 0.998477 0.997066 0.99758 0.992077 0.99211 0.995721 0.98979 0.996417 0.990545 0.99758 0.999227 0.99211 0.996248 0.98979 0.990552 0.990545 0.989255 0.992077 0.99211 0.993418 0.994423 0.996417 0.990545 0.995382 0.989678 0.99211 0.996248 0.994423 0.998477 0.990545 0.989255 0.989678 0.990062 1.00098 0.998598 0.994547 0.99151 1.00301 0.999769 0.996327 0.993428 0.998598 0.990412 0.99151 0.991102 0.999769 0.98923 0.993428 0.989061 0.994547 0.99151 0.993893 0.991884 0.996327 0.993428 0.996502 0.994715 0.99151 0.991102 0.991884 0.990284 0.993428 0.989061 0.994715 0.988467 1.00301 0.999769 0.996327 0.993428 1.00026 0.999227 0.9955 0.996248 0.999769 0.98923 0.993428 0.989061 0.999227 0.990552 0.996248 0.989255 0.996327 0.993428 0.996502 0.994715 0.9955 0.996248 0.994287 0.998477 0.993428 0.989061 0.994715 0.988467 0.996248 0.989255 0.998477 0.990062 0.994054 1.00049 1.00711 1.00305 1.00662 1.00015 1.0096 1.00257 1.00049 0.996457 1.00305 0.996448 1.00015 0.997827 1.00257 0.99333 1.00711 1.00305 1.00098 0.998598 1.0096 1.00257 1.00301 0.999769 1.00305 0.996448 0.998598 0.990412 1.00257 0.99333 0.999769 0.98923 1.00662 1.00015 1.0096 1.00257 0.997912 0.997066 1.00216 0.99758 1.00015 0.997827 1.00257 0.99333 0.997066 0.995721 0.99758 0.98979 1.0096 1.00257 1.00301 0.999769 1.00216 0.99758 1.00026 0.999227 1.00257 0.99333 0.999769 0.98923 0.99758 0.98979 0.999227 0.990552 0.997493 0.992831 0.998223 0.992878 1.00174 1.00131 1.00304 1.00049 0.992831 0.991551 0.992878 0.990389 1.00131 0.997009 1.00049 0.995556 0.998223 0.992878 0.997275 0.992053 1.