# vtk DataFile Version 3.0
#This file was generated by the deal.II library on 2025/4/17 at 14:16:25
ASCII
DATASET UNSTRUCTURED_GRID

POINTS 8192 double
-0.352404 0.000192265 -0.355403
-0.460826 -0.00151578 -0.299682
-0.527675 -0.0099097 -0.530675
-0.638207 -0.00974188 -0.425276
-0.413218 -0.117148 -0.301389
-0.506735 -0.105613 -0.259716
-0.590171 -0.165664 -0.433414
-0.676012 -0.14435 -0.357562
-0.460826 -0.00151578 -0.299682
-0.56765 0.000165383 -0.237083
-0.638207 -0.00974188 -0.425276
-0.742477 -0.00553602 -0.312838
-0.506735 -0.105613 -0.259716
-0.599107 -0.0912308 -0.213434
-0.676012 -0.14435 -0.357562
-0.757992 -0.12052 -0.27786
-0.527675 -0.0099097 -0.530675
-0.638207 -0.00974188 -0.425276
-0.706009 0.000161567 -0.70889
-0.820488 -0.0027144 -0.549818
-0.590171 -0.165664 -0.433414
-0.676012 -0.14435 -0.357562
-0.772763 -0.202516 -0.56505
-0.850626 -0.173904 -0.453036
-0.638207 -0.00974188 -0.425276
-0.742477 -0.00553602 -0.312838
-0.820488 -0.0027144 -0.549818
-0.922479 0.000148143 -0.38394
-0.676012 -0.14435 -0.357562
-0.757992 -0.12052 -0.27786
-0.850626 -0.173904 -0.453036
-0.921441 -0.142704 -0.338318
-0.413218 -0.117148 -0.301389
-0.506735 -0.105613 -0.259716
-0.590171 -0.165664 -0.433414
-0.676012 -0.14435 -0.357562
-0.470123 -0.235241 -0.23711
-0.549432 -0.210761 -0.21263
-0.643913 -0.319655 -0.321524
-0.707528 -0.278678 -0.280547
-0.506735 -0.105613 -0.259716
-0.599107 -0.0912308 -0.213434
-0.676012 -0.14435 -0.357562
-0.757992 -0.12052 -0.27786
-0.549432 -0.210761 -0.21263
-0.627954 -0.183893 -0.185409
-0.707528 -0.278678 -0.280547
-0.768929 -0.236229 -0.237745
-0.590171 -0.165664 -0.433414
-0.676012 -0.14435 -0.357562
-0.772763 -0.202516 -0.56505
-0.850626 -0.173904 -0.453036
-0.643913 -0.319655 -0.321524
-0.707528 -0.278678 -0.280547
-0.823747 -0.399118 -0.400859
-0.870326 -0.34237 -0.344111
-0.676012 -0.14435 -0.357562
-0.757992 -0.12052 -0.27786
-0.850626 -0.173904 -0.453036
-0.921441 -0.142704 -0.338318
-0.707528 -0.278678 -0.280547
-0.768929 -0.236229 -0.237745
-0.870326 -0.34237 -0.344111
-0.913406 -0.285039 -0.286436
-0.56765 0.000165383 -0.237083
-0.535329 -0.00227428 -0.116758
-0.742477 -0.00553602 -0.312838
-0.747811 -0.0102867 -0.159871
-0.599107 -0.0912308 -0.213434
-0.56885 -0.105727 -0.106803
-0.757992 -0.12052 -0.27786
-0.756042 -0.142215 -0.143291
-0.535329 -0.00227428 -0.116758
-0.498389 0.000191951 -0.000384659
-0.747811 -0.0102867 -0.159871
-0.744073 -0.00974934 -0.0103259
-0.56885 -0.105727 -0.106803
-0.53527 -0.115659 -0.00282783
-0.756042 -0.142215 -0.143291
-0.747752 -0.158772 -0.0108402
-0.742477 -0.00553602 -0.312838
-0.747811 -0.0102867 -0.159871
-0.922479 0.000148143 -0.38394
-0.967741 -0.0031633 -0.191426
-0.757992 -0.12052 -0.27786
-0.756042 -0.142215 -0.143291
-0.921441 -0.142704 -0.338318
-0.94958 -0.169745 -0.170698
-0.747811 -0.0102867 -0.159871
-0.744073 -0.00974934 -0.0103259
-0.967741 -0.0031633 -0.191426
-0.998187 0.00020076 -0.000332924
-0.756042 -0.142215 -0.143291
-0.747752 -0.158772 -0.0108402
-0.94958 -0.169745 -0.170698
-0.967588 -0.190439 -0.00366271
-0.599107 -0.0912308 -0.213434
-0.56885 -0.105727 -0.106803
-0.757992 -0.12052 -0.27786
-0.756042 -0.142215 -0.143291
-0.627954 -0.183893 -0.185409
-0.598917 -0.211647 -0.0921564
-0.768929 -0.236229 -0.237745
-0.757802 -0.276073 -0.121445
-0.56885 -0.105727 -0.106803
-0.53527 -0.115659 -0.00282783
-0.756042 -0.142215 -0.143291
-0.747752 -0.158772 -0.0108402
-0.598917 -0.211647 -0.0921564
-0.567427 -0.235231 -0.000320458
-0.757802 -0.276073 -0.121445
-0.742254 -0.310986 -0.00602186
-0.757992 -0.12052 -0.27786
-0.756042 -0.142215 -0.143291
-0.921441 -0.142704 -0.338318
-0.94958 -0.169745 -0.170698
-0.768929 -0.236229 -0.237745
-0.757802 -0.276073 -0.121445
-0.913406 -0.285039 -0.286436
-0.921171 -0.336631 -0.143513
-0.756042 -0.142215 -0.143291
-0.747752 -0.158772 -0.0108402
-0.94958 -0.169745 -0.170698
-0.967588 -0.190439 -0.00366271
-0.757802 -0.276073 -0.121445
-0.742254 -0.310986 -0.00602186
-0.921171 -0.336631 -0.143513
-0.92211 -0.382169 -0.000276682
-0.470123 -0.235241 -0.23711
-0.549432 -0.210761 -0.21263
-0.643913 -0.319655 -0.321524
-0.707528 -0.278678 -0.280547
-0.413023 -0.298824 -0.118252
-0.50654 -0.257152 -0.106717
-0.589976 -0.430849 -0.166768
-0.675817 -0.354998 -0.145454
-0.549432 -0.210761 -0.21263
-0.627954 -0.183893 -0.185409
-0.707528 -0.278678 -0.280547
-0.768929 -0.236229 -0.237745
-0.50654 -0.257152 -0.106717
-0.598917 -0.211647 -0.0921564
-0.675817 -0.354998 -0.145454
-0.757802 -0.276073 -0.121445
-0.643913 -0.319655 -0.321524
-0.707528 -0.278678 -0.280547
-0.823747 -0.399118 -0.400859
-0.870326 -0.34237 -0.344111
-0.589976 -0.430849 -0.166768
-0.675817 -0.354998 -0.145454
-0.772423 -0.562508 -0.203473
-0.850286 -0.450494 -0.17486
-0.707528 -0.278678 -0.280547
-0.768929 -0.236229 -0.237745
-0.870326 -0.34237 -0.344111
-0.913406 -0.285039 -0.286436
-0.675817 -0.354998 -0.145454
-0.757802 -0.276073 -0.121445
-0.850286 -0.450494 -0.17486
-0.921171 -0.336631 -0.143513
-0.413023 -0.298824 -0.118252
-0.50654 -0.257152 -0.106717
-0.589976 -0.430849 -0.166768
-0.675817 -0.354998 -0.145454
-0.352243 -0.352638 -0.000361174
-0.460665 -0.296917 -0.00206922
-0.527515 -0.52791 -0.0104631
-0.638047 -0.422511 -0.0102953
-0.50654 -0.257152 -0.106717
-0.598917 -0.211647 -0.0921564
-0.675817 -0.354998 -0.145454
-0.757802 -0.276073 -0.121445
-0.460665 -0.296917 -0.00206922
-0.567427 -0.235231 -0.000320458
-0.638047 -0.422511 -0.0102953
-0.742254 -0.310986 -0.00602186
-0.589976 -0.430849 -0.166768
-0.675817 -0.354998 -0.145454
-0.772423 -0.562508 -0.203473
-0.850286 -0.450494 -0.17486
-0.527515 -0.52791 -0.0104631
-0.638047 -0.422511 -0.0102953
-0.705644 -0.706074 -0.000315999
-0.820122 -0.547002 -0.00319197
-0.675817 -0.354998 -0.145454
-0.757802 -0.276073 -0.121445
-0.850286 -0.450494 -0.17486
-0.921171 -0.336631 -0.143513
-0.638047 -0.422511 -0.0102953
-0.742254 -0.310986 -0.00602186
-0.820122 -0.547002 -0.00319197
-0.92211 -0.382169 -0.000276682
-0.352404 0.000192265 -0.355403
-0.460826 -0.00151578 -0.299682
-0.413218 -0.117148 -0.301389
-0.506735 -0.105613 -0.259716
-0.173122 -0.0142688 -0.175518
-0.352683 -0.0139409 -0.153773
-0.293398 -0.154643 -0.156258
-0.430994 -0.13391 -0.135525
-0.460826 -0.00151578 -0.299682
-0.56765 0.000165383 -0.237083
-0.506735 -0.105613 -0.259716
-0.599107 -0.0912308 -0.213434
-0.352683 -0.0139409 -0.153773
-0.535329 -0.00227428 -0.116758
-0.430994 -0.13391 -0.135525
-0.56885 -0.105727 -0.106803
-0.413218 -0.117148 -0.301389
-0.506735 -0.105613 -0.259716
-0.470123 -0.235241 -0.23711
-0.549432 -0.210761 -0.21263
-0.293398 -0.154643 -0.156258
-0.430994 -0.13391 -0.135525
-0.413023 -0.298824 -0.118252
-0.50654 -0.257152 -0.106717
-0.506735 -0.105613 -0.259716
-0.599107 -0.0912308 -0.213434
-0.549432 -0.210761 -0.21263
-0.627954 -0.183893 -0.185409
-0.430994 -0.13391 -0.135525
-0.56885 -0.105727 -0.106803
-0.50654 -0.257152 -0.106717
-0.598917 -0.211647 -0.0921564
-0.173122 -0.0142688 -0.175518
-0.352683 -0.0139409 -0.153773
-0.293398 -0.154643 -0.156258
-0.430994 -0.13391 -0.135525
0.000780041 0.000278924 -0.00057306
-0.243016 -0.0123486 -0.0132006
-0.173354 -0.173855 -0.015073
-0.352915 -0.15211 -0.0147452
-0.352683 -0.0139409 -0.153773
-0.535329 -0.00227428 -0.116758
-0.430994 -0.13391 -0.135525
-0.56885 -0.105727 -0.106803
-0.243016 -0.0123486 -0.0132006
-0.498389 0.000191951 -0.000384659
-0.352915 -0.15211 -0.0147452
-0.53527 -0.115659 -0.00282783
-0.293398 -0.154643 -0.156258
-0.430994 -0.13391 -0.135525
-0.413023 -0.298824 -0.118252
-0.50654 -0.257152 -0.106717
-0.173354 -0.173855 -0.015073
-0.352915 -0.15211 -0.0147452
-0.352243 -0.352638 -0.000361174
-0.460665 -0.296917 -0.00206922
-0.430994 -0.13391 -0.135525
-0.56885 -0.105727 -0.106803
-0.50654 -0.257152 -0.106717
-0.598917 -0.211647 -0.0921564
-0.352915 -0.15211 -0.0147452
-0.53527 -0.115659 -0.00282783
-0.460665 -0.296917 -0.00206922
-0.567427 -0.235231 -0.000320458
0.352649 -6.60007e-05 0.355283
0.410279 0.117595 0.287049
0.536514 -0.0282438 0.539148
0.595859 0.137192 0.404087
0.459089 -0.00431713 0.292818
0.502677 0.102332 0.24475
0.64075 -0.0301819 0.419521
0.677354 0.118413 0.330903
0.410279 0.117595 0.287049
0.470335 0.235362 0.236973
0.595859 0.137192 0.404087
0.659978 0.311926 0.313508
0.502677 0.102332 0.24475
0.54751 0.208139 0.209747
0.677354 0.118413 0.330903
0.716544 0.269372 0.270965
0.536514 -0.0282438 0.539148
0.595859 0.137192 0.404087
0.706288 -4.16259e-05 0.708774
0.756986 0.193276 0.521357
0.64075 -0.0301819 0.419521
0.677354 0.118413 0.330903
0.807053 -0.0161891 0.546161
0.830764 0.16166 0.423405
0.595859 0.137192 0.404087
0.659978 0.311926 0.313508
0.756986 0.193276 0.521357
0.815455 0.407923 0.40933
0.677354 0.118413 0.330903
0.716544 0.269372 0.270965
0.830764 0.16166 0.423405
0.858865 0.346413 0.347837
0.459089 -0.00431713 0.292818
0.502677 0.102332 0.24475
0.64075 -0.0301819 0.419521
0.677354 0.118413 0.330903
0.567862 -6.5153e-05 0.236966
0.597324 0.09303 0.207138
0.752733 -0.0138827 0.305448
0.765453 0.108274 0.26012
0.502677 0.102332 0.24475
0.54751 0.208139 0.209747
0.677354 0.118413 0.330903
0.716544 0.269372 0.270965
0.597324 0.09303 0.207138
0.627294 0.18486 0.18614
0.765453 0.108274 0.26012
0.779606 0.229238 0.230517
0.64075 -0.0301819 0.419521
0.677354 0.118413 0.330903
0.807053 -0.0161891 0.546161
0.830764 0.16166 0.423405
0.752733 -0.0138827 0.305448
0.765453 0.108274 0.26012
0.922708 -5.52721e-05 0.383806
0.916352 0.143615 0.323889
0.677354 0.118413 0.330903
0.716544 0.269372 0.270965
0.830764 0.16166 0.423405
0.858865 0.346413 0.347837
0.765453 0.108274 0.26012
0.779606 0.229238 0.230517
0.916352 0.143615 0.323889
0.912669 0.286636 0.287755
0.470335 0.235362 0.236973
0.410018 0.284734 0.118436
0.659978 0.311926 0.313508
0.595599 0.40179 0.138021
0.54751 0.208139 0.209747
0.502416 0.242437 0.103172
0.716544 0.269372 0.270965
0.677094 0.328599 0.119245
0.410018 0.284734 0.118436
0.352386 0.352767 0.000189467
0.595599 0.40179 0.138021
0.536251 0.536632 -0.0279884
[...]
POINT_DATA 8192
SCALARS D_0 double 1
LOOKUP_TABLE default
0.000292674 0.000256816 0.000339266 0.000279163 0.000257836 0.00023956 0.000286393 0.000258037 0.000256816 0.000232874 0.000279163 0.000248176 0.00023956 0.000228024 0.000258037 0.000243012 0.000339266 0.000279163 0.000283535 0.000231371 0.000286393 0.000258037 0.000235686 0.000218864 0.000279163 0.000248176 0.000231371 0.000217908 0.000258037 0.000243012 0.000218864 0.000221775 0.000257836 0.00023956 0.000286393 0.000258037 0.000229291 0.000225202 0.000245987 0.000241681 0.00023956 0.000228024 0.000258037 0.000243012 0.000225202 0.000223786 0.000241681 0.000237939 0.000286393 0.000258037 0.000235686 0.000218864 0.000245987 0.000241681 0.000216335 0.000218285 0.000258037 0.000243012 0.000218864 0.000221775 0.000241681 0.000237939 0.000218285 0.00022457 0.000232874 0.000202544 0.000248176 0.000233751 0.000228024 0.000205221 0.000243012 0.000233765 0.000202544 0.000180341 0.000233751 0.000223517 0.000205221 0.000188591 0.000233765 0.000227685 0.000248176 0.000233751 0.000217908 0.000234915 0.000243012 0.000233765 0.000221775 0.000235753 0.000233751 0.000223517 0.000234915 0.000245454 0.000233765 0.000227685 0.000235753 0.000242581 0.000228024 0.000205221 0.000243012 0.000233765 0.000223786 0.000208441 0.000237939 0.000234395 0.000205221 0.000188591 0.000233765 0.000227685 0.000208441 0.00019759 0.000234395 0.000232222 0.000243012 0.000233765 0.000221775 0.000235753 0.000237939 0.000234395 0.00022457 0.000236232 0.000233765 0.000227685 0.000235753 0.000242581 0.000234395 0.000232222 0.000236232 0.000239829 0.000229291 0.000225202 0.000245987 0.000241681 0.000196887 0.000201208 0.000229402 0.000231346 0.000225202 0.000223786 0.000241681 0.000237939 0.000201208 0.000208441 0.000231346 0.000234395 0.000245987 0.000241681 0.000216335 0.000218285 0.000229402 0.000231346 0.000226823 0.00022976 0.000241681 0.000237939 0.000218285 0.00022457 0.000231346 0.000234395 0.00022976 0.000236232 0.000196887 0.000201208 0.000229402 0.000231346 0.000179405 0.0001876 0.000221662 0.000224317 0.000201208 0.000208441 0.000231346 0.000234395 0.0001876 0.00019759 0.000224317 0.000232222 0.000229402 0.000231346 0.000226823 0.00022976 0.000221662 0.000224317 0.000244888 0.000238423 0.000231346 0.000234395 0.00022976 0.000236232 0.000224317 0.000232222 0.000238423 0.000239829 0.000292674 0.000256816 0.000257836 0.00023956 0.00016873 0.000181443 0.000178066 0.000190832 0.000256816 0.000232874 0.00023956 0.000228024 0.000181443 0.000202544 0.000190832 0.000205221 0.000257836 0.00023956 0.000229291 0.000225202 0.000178066 0.000190832 0.000196887 0.000201208 0.00023956 0.000228024 0.000225202 0.000223786 0.000190832 0.000205221 0.000201208 0.000208441 0.00016873 0.000181443 0.000178066 0.000190832 1.49279e-05 0.000101279 0.00010303 0.000146436 0.000181443 0.000202544 0.000190832 0.000205221 0.000101279 0.000180341 0.000146436 0.000188591 0.000178066 0.000190832 0.000196887 0.000201208 0.00010303 0.000146436 0.000179405 0.0001876 0.000190832 0.000205221 0.000201208 0.000208441 0.000146436 0.000188591 0.0001876 0.00019759 0.000272216 0.000227623 0.00031521 0.000250808 0.000231913 0.000209853 0.000250462 0.000224484 0.000227623 0.000201085 0.000250808 0.00020762 0.000209853 0.000196487 0.000224484 0.000206676 0.00031521 0.000250808 0.000266965 0.00020157 0.000250462 0.000224484 0.000206514 0.000185529 0.000250808 0.00020762 0.00020157 0.000172286 0.000224484 0.000206676 0.000185529 0.000181499 0.000231913 0.000209853 0.000250462 0.000224484 0.000208642 0.00020123 0.00021734 0.000211 0.000209853 0.000196487 0.000224484 0.000206676 0.00020123 0.000196848 0.000211 0.000206246 0.000250462 0.000224484 0.000206514 0.000185529 0.00021734 0.000211 0.000183493 0.000189019 0.000224484 0.000206676 0.000185529 0.000181499 0.000211 0.000206246 0.000189019 0.000189967 0.000201085 0.000168105 0.00020762 0.000194386 0.000196487 0.000174469 0.000206676 0.000201993 0.000168105 0.000157898 0.000194386 0.000198921 0.000174469 0.000166042 0.000201993 0.000205767 0.00020762 0.000194386 0.000172286 0.000192765 0.000206676 0.000201993 0.000181499 0.00020348 0.000194386 0.000198921 0.000192765 0.000215517 0.000201993 0.000205767 0.00020348 0.000218327 0.000196487 0.000174469 0.000206676 0.000201993 0.000196848 0.000185365 0.000206246 0.00021021 0.000174469 0.000166042 0.000201993 0.000205767 0.000185365 0.000179619 0.00021021 0.000216623 0.000206676 0.000201993 0.000181499 0.00020348 0.000206246 0.00021021 0.000189967 0.000210616 0.000201993 0.000205767 0.00020348 0.000218327 0.00021021 0.000216623 0.000210616 0.000225856 0.000208642 0.00020123 0.00021734 0.000211 0.00018153 0.000181604 0.000208621 0.0002072 0.00020123 0.000196848 0.000211 0.000206246 0.000181604 0.000185365 0.0002072 0.00021021 0.00021734 0.000211 0.000183493 0.000189019 0.000208621 0.0002072 0.000207881 0.000210167 0.000211 0.000206246 0.000189019 0.000189967 0.0002072 0.00021021 0.000210167 0.000210616 0.00018153 0.000181604 0.000208621 0.0002072 0.000163383 0.000170451 0.000208253 0.0002122 0.000181604 0.000185365 0.0002072 0.00021021 0.000170451 0.000179619 0.0002122 0.000216623 0.000208621 0.0002072 0.000207881 0.000210167 0.000208253 0.0002122 0.000226365 0.000226249 0.0002072 0.00021021 0.000210167 0.000210616 0.0002122 0.000216623 0.000226249 0.000225856 0.000272216 0.000227623 0.000231913 0.000209853 0.000156263 0.000141665 0.000156286 0.000159349 0.000227623 0.000201085 0.000209853 0.000196487 0.000141665 0.000168105 0.000159349 0.000174469 0.000231913 0.000209853 0.000208642 0.00020123 0.000156286 0.000159349 0.00018153 0.000181604 0.000209853 0.000196487 0.00020123 0.000196848 0.000159349 0.000174469 0.000181604 0.000185365 0.000156263 0.000141665 0.000156286 0.000159349 1.49279e-05 8.58468e-05 8.63231e-05 0.00012818 0.000141665 0.000168105 0.000159349 0.000174469 8.58468e-05 0.000157898 0.00012818 0.000166042 0.000156286 0.000159349 0.00018153 0.000181604 8.63231e-05 0.00012818 0.000163383 0.000170451 0.000159349 0.000174469 0.000181604 0.000185365 0.00012818 0.000166042 0.000170451 0.000179619 0.000365388 0.000377296 0.000450942 0.000441003 0.000378277 0.000388528 0.000438658 0.000432071 0.000377296 0.00038194 0.000441003 0.000412675 0.000388528 0.000390273 0.000432071 0.000414227 0.000450942 0.000441003 0.000454471 0.00044592 0.000438658 0.000432071 0.000442209 0.000436854 0.000441003 0.000412675 0.00044592 0.000409241 0.000432071 0.000414227 0.000436854 0.000401676 0.000378277 0.000388528 0.000438658 0.000432071 0.00037875 0.000388874 0.00041045 0.00041521 0.000388528 0.000390273 0.000432071 0.000414227 0.000388874 0.00039101 0.00041521 0.000405312 0.000438658 0.000432071 0.000442209 0.000436854 0.00041045 0.00041521 0.000401537 0.000403249 0.000432071 0.000414227 0.000436854 0.000401676 0.00041521 0.000405312 0.000403249 0.000390674 0.00038194 0.00033321 0.000412675 0.000371573 0.000390273 0.000350625 0.000414227 0.000382362 0.00033321 0.00027636 0.000371573 0.000317097 0.000350625 0.00030203 0.000382362 0.000341656 0.000412675 0.000371573 0.000409241 0.000338192 0.000414227 0.000382362 0.000401676 0.000354627 0.000371573 0.000317097 0.000338192 0.00027099 0.000382362 0.000341656 0.000354627 0.000301789 0.000390273 0.000350625 0.000414227 0.000382362 0.00039101 0.000361058 0.000405312 0.000380485 0.000350625 0.00030203 0.000382362 0.000341656 0.000361058 0.000325488 0.000380485 0.00035311 0.000414227 0.000382362 0.000401676 0.000354627 0.000405312 0.000380485 0.000390674 0.000357283 0.000382362 0.000341656 0.000354627 0.000301789 0.000380485 0.00035311 0.000357283 0.000314823 0.00037875 0.000388874 0.00041045 0.00041521 0.000326603 0.000345729 0.000368664 0.00038225 0.000388874 0.00039101 0.00041521 0.000405312 0.000345729 0.000361058 0.00038225 0.000380485 0.00041045 0.00041521 0.000401537 0.000403249 0.000368664 0.00038225 0.000337277 0.000355272 0.00041521 0.000405312 0.000403249 0.000390674 0.00038225 0.000380485 0.000355272 0.000357283 0.000326603 0.000345729 0.000368664 0.00038225 0.000267991 0.000294298 0.000309907 0.000336773 0.000345729 0.000361058 0.00038225 0.000380485 0.000294298 0.000325488 0.000336773 0.00035311 0.000368664 0.00038225 0.000337277 0.000355272 0.000309907 0.000336773 0.000260231 0.000294867 0.00038225 0.000380485 0.000355272 0.000357283 0.000336773 0.00035311 0.000294867 0.000314823 0.000365388 0.000377296 0.000378277 0.000388528 0.000206463 0.000274665 0.000275362 0.000315257 0.000377296 0.00038194 0.000388528 0.000390273 0.000274665 0.00033321 0.000315257 0.000350625 0.000378277 0.000388528 0.00037875 0.000388874 0.000275362 0.000315257 0.000326603 0.000345729 0.000388528 0.000390273 0.000388874 0.00039101 0.000315257 0.000350625 0.000345729 0.000361058 0.000206463 0.000274665 0.000275362 0.000315257 1.49279e-05 0.000150584 0.000153816 0.000227603 0.000274665 0.00033321 0.000315257 0.000350625 0.000150584 0.00027636 0.000227603 0.00030203 0.000275362 0.000315257 0.000326603 0.000345729 0.000153816 0.000227603 0.000267991 0.000294298 0.000315257 0.000350625 0.000345729 0.000361058 0.000227603 0.00030203 0.000294298 0.000325488 0.000389552 0.000405016 0.000489255 0.000475273 0.000404443 0.000417171 0.000474913 0.00046911 0.000405016 0.000405498 0.000475273 0.00044064 0.000417171 0.00041737 0.00046911 0.000444723 0.000489255 0.000475273 0.000497792 0.000488761 0.000474913 0.00046911 0.000478265 0.000472133 0.000475273 0.00044064 0.000488761 0.000433179 0.00046911 0.000444723 0.000472133 0.000435712 0.000404443 0.000417171 0.000474913 0.00046911 0.000403475 0.000416548 0.000441036 0.000448437 0.000417171 0.00041737 0.00046911 0.000444723 0.000416548 0.000418937 0.000448437 0.000438312 0.000474913 0.00046911 0.000478265 0.000472133 0.000441036 0.000448437 0.000430758 0.000441641 0.00046911 0.000444723 0.000472133 0.000435712 0.000448437 0.000438312 0.000441641 0.000419411 0.000405498 0.000351056 0.00044064 0.000394861 0.00041737 0.000373149 0.000444723 0.000411231 0.000351056 0.000289422 0.000394861 0.000337364 0.000373149 0.00032178 0.000411231 0.000368713 0.00044064 0.000394861 0.000433179 0.0003575 0.000444723 0.000411231 0.000435712 0.000382567 0.000394861 0.000337364 0.0003575 0.000288625 0.000411231 0.000368713 0.000382567 0.000326398 0.00041737 0.000373149 0.000444723 0.000411231 0.000418937 0.000384779 0.000438312 0.00041316 0.000373149 0.00032178 0.000411231 0.000368713 0.000384779 0.000345075 0.00041316 0.000384104 0.000444723 0.000411231 0.000435712 0.000382567 0.000438312 0.00041316 0.000419411 0.000388689 0.000411231 0.000368713 0.000382567 0.000326398 0.00041316 0.000384104 0.000388689 0.000345815 0.000403475 0.000416548 0.000441036 0.000448437 0.000347916 0.00037112 0.000393723 0.000415378 0.000416548 0.000418937 0.000448437 0.000438312 0.00037112 0.000384779 0.000415378 0.00041316 0.000441036 0.000448437 0.000430758 0.000441641 0.000393723 0.000415378 0.000359084 0.000392252 0.000448437 0.000438312 0.000441641 0.000419411 0.000415378 0.00041316 0.000392252 0.000388689 0.000347916 0.00037112 0.000393723 0.000415378 0.000285758 0.000319078 0.00033968 0.000372319 0.00037112 0.000384779 0.000415378 0.00041316 0.000319078 0.000345075 0.000372319 0.000384104 0.000393723 0.000415378 0.000359084 0.000392252 0.00033968 0.000372319 0.000282967 0.000336968 0.000415378 0.00041316 0.000392252 0.000388689 0.000372319 0.000384104 0.000336968 0.000345815 0.000389552 0.000405016 0.000404443 0.000417171 0.000211966 0.000291199 0.000292011 0.000339925 0.000405016 0.000405498 0.000417171 0.00041737 0.000291199 0.000351056 0.000339925 0.000373149 0.000404443 0.000417171 0.000403475 0.000416548 0.000292011 0.000339925 0.000347916 0.00037112 0.000417171 0.00041737 0.000416548 0.000418937 0.000339925 0.000373149 0.00037112 0.000384779 0.000211966 0.000291199 0.000292011 0.000339925 1.49279e-05 0.000164773 0.000167618 0.00025077 0.000291199 0.000351056 0.000339925 0.000373149 0.000164773 0.000289422 0.00025077 0.00032178 0.000292011 0.000339925 0.000347916 0.00037112 0.000167618 0.00025077 0.000285758 0.000319078 0.000339925 0.000373149 0.00037112 0.000384779 0.00025077 0.00032178 0.000319078 0.000345075 0.000278342 0.000241508 0.00031954 0.000269119 0.000243861 0.000225488 0.000264511 0.000244283 0.000241508 0.000215326 0.000269119 0.000231133 0.000225488 0.000212067 0.000244283 0.000227926 0.00031954 0.000269119 0.000277303 0.00022401 0.000264511 0.000244283 0.000223861 0.000208225 0.000269119 0.000231133 0.00022401 0.000198863 0.000244283 0.000227926 0.000208225 0.000203325 0.000243861 0.000225488 0.000264511 0.000244283 0.000222052 0.000216634 0.000236054 0.000231783 0.000225488 0.000212067 0.000244283 0.000227926 0.000216634 0.00021254 0.000231783 0.000226039 0.000264511 0.000244283 0.000223861 0.000208225 0.000236054 0.000231783 0.000207811 0.0002119 0.000244283 0.000227926 0.000208225 0.000203325 0.000231783 0.000226039 0.0002119 0.000212087 0.000215326 0.000179887 0.000231133 0.000210397 0.000212067 0.000185781 0.000227926 0.000216494 0.000179887 0.000165412 0.000210397 0.000205567 0.000185781 0.000173433 0.000216494 0.000211197 0.000231133 0.000210397 0.000198863 0.000209045 0.000227926 0.000216494 0.000203325 0.00021776 0.000210397 0.000205567 0.000209045 0.000225365 0.000216494 0.000211197 0.00021776 0.000226783 0.000212067 0.000185781 0.000227926 0.000216494 0.00021254 0.000196944 0.000226039 0.000224671 0.000185781 0.000173433 0.000216494 0.000211197 0.000196944 0.00018687 0.000224671 0.000222284 0.000227926 0.000216494 0.000203325 0.00021776 0.000226039 0.000224671 0.000212087 0.000224845 0.000216494 0.000211197 0.00021776 0.000226783 0.000224671 0.000222284 0.000224845 0.000233961 0.000222052 0.000216634 0.000236054 0.000231783 0.000193398 0.000194456 0.000224101 0.000223698 0.000216634 0.00021254 0.000231783 0.000226039 0.000194456 0.000196944 0.000223698 0.000224671 0.000236054 0.000231783 0.000207811 0.0002119 0.000224101 0.000223698 0.000225607 0.000230407 0.000231783 0.000226039 0.0002119 0.000212087 0.000223698 0.000224671 0.000230407 0.000224845 0.000193398 0.000194456 0.000224101 0.000223698 0.000173348 0.000179294 0.000215973 0.000220189 0.000194456 0.000196944 0.000223698 0.000224671 0.000179294 0.00018687 0.000220189 0.000222284 0.000224101 0.000223698 0.000225607 0.000230407 0.000215973 0.000220189 0.000238922 0.000237415 0.000223698 0.000224671 0.000230407 0.000224845 0.000220189 0.000222284 0.000237415 0.000233961 0.000278342 0.000241508 0.000243861 0.000225488 0.000151123 0.000154034 0.000163867 0.000172363 0.000241508 0.000215326 0.000225488 0.000212067 0.000154034 0.000179887 0.000172363 0.000185781 0.000243861 0.000225488 0.000222052 0.000216634 0.000163867 0.000172363 0.000193398 0.000194456 0.000225488 0.000212067 0.000216634 0.00021254 0.000172363 0.000185781 0.000194456 0.000196944 0.000151123 0.000154034 0.000163867 0.000172363 1.49279e-05 8.85685e-05 9.51366e-05 0.000134265 0.000154034 0.000179887 0.000172363 0.000185781 8.85685e-05 0.000165412 0.000134265 0.000173433 0.000163867 0.000172363 0.000193398 0.000194456 9.51366e-05 0.000134265 0.000173348 0.000179294 0.000172363 0.000185781 0.000194456 0.000196944 0.000134265 0.000173433 0.000179294 0.00018687 0.000170835 0.000189138 0.00020701 0.000217121 0.000176098 0.000191552 0.000209512 0.000219086 0.000189138 0.000223857 0.000217121 0.000242368 0.000191552 0.000218201 0.000219086 0.000233765 0.00020701 0.000217121 0.000221698 0.000214136 0.000209512 0.000219086 0.00022065 0.000216747 0.000217121 0.000242368 0.000214136 0.000206536 0.000219086 0.000233765 0.000216747 0.000206768 0.000176098 0.000191552 0.000209512 0.000219086 0.000184942 0.000196756 0.000219035 0.000220686 0.000191552 0.000218201 0.000219086 0.000233765 0.000196756 0.000214513 0.000220686 0.000227439 0.000209512 0.000219086 0.00022065 0.000216747 0.000219035 0.000220686 0.000222338 0.00022125 0.000219086 0.000233765 0.000216747 0.000206768 0.000220686 0.000227439 0.00022125 0.000209315 0.000223857 0.000254469 0.000242368 0.000291866 0.000218201 0.000233637 0.000233765 0.000256882 0.000254469 0.000290137 0.000291866 0.000345666 0.000233637 0.000251628 0.000256882 0.00027964 0.000242368 0.000291866 0.000206536 0.000241916 0.000233765 0.000256882 0.000206768 0.00021568 0.000291866 0.000345666 0.000241916 0.00029324 0.000256882 0.00027964 0.00021568 0.000232821 0.000218201 0.000233637 0.000233765 0.000256882 0.000214513 0.000219662 0.000227439 0.000237081 0.000233637 0.000251628 0.000256882 0.00027964 0.000219662 0.000224726 0.000237081 0.000243488 0.000233765 0.000256882 0.000206768 0.00021568 0.000227439 0.000237081 0.000209315 0.000211719 0.000256882 0.00027964 0.00021568 0.000232821 0.000237081 0.000243488 0.000211719 0.000213146 0.000184942 0.000196756 0.000219035 0.000220686 0.000173576 0.000192965 0.000212568 0.000221749 0.000196756 0.000214513 0.000220686 0.000227439 0.000192965 0.000219662 0.000221749 0.000237081 0.000219035 0.000220686 0.000222338 0.00022125 0.000212568 0.000221749 0.00022687 0.000223509 0.000220686 0.000227439 0.00022125 0.000209315 0.000221749 0.000237081 0.000223509 0.000211719 0.000173576 0.000192965 0.000212568 0.000221749 0.000164147 0.000189585 0.00020772 0.000223747 0.000192965 0.000219662 0.000221749 0.000237081 0.000189585 0.000224726 0.000223747 0.000243488 0.000212568 0.000221749 0.00022687 0.000223509 0.00020772 0.000223747 0.00022481 0.00022511 0.000221749 0.000237081 0.000223509 0.000211719 0.000223747 0.000243488 0.00022511 0.000213146 0.000170835 0.000189138 0.000176098 0.000191552 9.64508e-05 0.000173621 0.000135286 0.000182358 0.000189138 0.000223857 0.000191552 0.000218201 0.000173621 0.000254469 0.000182358 0.000233637 0.000176098 0.000191552 0.000184942 0.000196756 0.000135286 0.000182358 0.000173576 0.000192965 0.000191552 0.000218201 0.000196756 0.000214513 0.000182358 0.000233637 0.000192965 0.000219662 9.64508e-05 0.000173621 0.000135286 0.000182358 1.49279e-05 0.000171188 9.04282e-05 0.000174913 0.000173621 0.000254469 0.000182358 0.000233637 0.000171188 0.000290137 0.000174913 0.000251628 0.000135286 0.000182358 0.000173576 0.000192965 9.04282e-05 0.000174913 0.000164147 0.000189585 0.000182358 0.000233637 0.000192965 0.000219662 0.000174913 0.000251628 0.000189585 0.000224726 0.000170835 0.000176098 0.00020701 0.000209512 0.000179998 0.000184057 0.000209375 0.000212942 0.000176098 0.000184942 0.000209512 0.000219035 0.000184057 0.000191404 0.000212942 0.000217747 0.00020701 0.000209512 0.000221698 0.00022065 0.000209375 0.000212942 0.00022045 0.000222039 0.000209512 0.000219035 0.00022065 0.000222338 0.000212942 0.000217747 0.000222039 0.00022387 0.000179998 0.000184057 0.000209375 0.000212942 0.00020696 0.0002028 0.00022586 0.000222958 0.000184057 0.000191404 0.000212942 0.000217747 0.0002028 0.000203278 0.000222958 0.000219461 0.000209375 0.000212942 0.00022045 0.000222039 0.00022586 0.000222958 0.000202051 0.000204792 0.000212942 0.000217747 0.000222039 0.00022387 0.000222958 0.000219461 0.000204792 0.000208285 0.000184942 0.000173576 0.000219035 0.000212568 0.000191404 0.000182904 0.000217747 0.000212493 0.000173576 0.000164147 0.000212568 0.00020772 0.000182904 0.000178798 0.000212493 0.000210266 0.000219035 0.000212568 0.000222338 0.00022687 0.000217747 0.000212493 0.00022387 0.000220568 0.000212568 0.00020772 0.00022687 0.00022481 0.000212493 0.000210266 0.000220568 0.000215712 0.000191404 0.000182904 0.000217747 0.000212493 0.000203278 0.000201884 0.000219461 0.000219627 0.000182904 0.000178798 0.000212493 0.000210266 0.000201884 0.000204351 0.000219627 0.000219049 0.000217747 0.000212493 0.00022387 0.000220568 0.000219461 0.000219627 0.000208285 0.000203827 0.000212493 0.000210266 0.000220568 0.000215712 0.000219627 0.000219049 0.000203827 0.000195087 0.00020696 0.0002028 0.00022586 0.000222958 0.000230101 0.00020991 0.000262165 0.000232134 0.0002028 0.000203278 0.000222958 0.000219461 0.00020991 0.000201884 0.000232134 0.000219627 0.00022586 0.000222958 0.000202051 0.000204792 0.000262165 0.000232134