# vtk DataFile Version 3.0
#This file was generated by the deal.II library on 2025/4/16 at 17:54:16
ASCII
DATASET UNSTRUCTURED_GRID

POINTS 8192 double
-0.353495 8.49761e-06 -0.353645
-0.461917 -0.00169955 -0.297924
-0.528766 -0.0100935 -0.528917
-0.639298 -0.00992565 -0.423518
-0.414309 -0.117332 -0.299631
-0.507826 -0.105797 -0.257958
-0.591262 -0.165848 -0.431656
-0.677103 -0.144534 -0.355804
-0.461917 -0.00169955 -0.297924
-0.568965 7.12578e-06 -0.23577
-0.639298 -0.00992565 -0.423518
-0.743792 -0.00569428 -0.311526
-0.507826 -0.105797 -0.257958
-0.600423 -0.0913891 -0.212121
-0.677103 -0.144534 -0.355804
-0.759307 -0.120678 -0.276547
-0.528766 -0.0100935 -0.528917
-0.639298 -0.00992565 -0.423518
-0.707051 6.87047e-06 -0.707195
-0.821529 -0.0028691 -0.548124
-0.591262 -0.165848 -0.431656
-0.677103 -0.144534 -0.355804
-0.773805 -0.202671 -0.563356
-0.851668 -0.174059 -0.451342
-0.639298 -0.00992565 -0.423518
-0.743792 -0.00569428 -0.311526
-0.821529 -0.0028691 -0.548124
-0.923809 6.23047e-06 -0.382745
-0.677103 -0.144534 -0.355804
-0.759307 -0.120678 -0.276547
-0.851668 -0.174059 -0.451342
-0.92277 -0.142846 -0.337124
-0.414309 -0.117332 -0.299631
-0.507826 -0.105797 -0.257958
-0.591262 -0.165848 -0.431656
-0.677103 -0.144534 -0.355804
-0.47134 -0.23568 -0.235772
-0.550649 -0.2112 -0.211292
-0.64513 -0.320094 -0.320186
-0.708744 -0.279117 -0.279209
-0.507826 -0.105797 -0.257958
-0.600423 -0.0913891 -0.212121
-0.677103 -0.144534 -0.355804
-0.759307 -0.120678 -0.276547
-0.550649 -0.2112 -0.211292
-0.629339 -0.184272 -0.184346
-0.708744 -0.279117 -0.279209
-0.770313 -0.236608 -0.236682
-0.591262 -0.165848 -0.431656
-0.677103 -0.144534 -0.355804
-0.773805 -0.202671 -0.563356
-0.851668 -0.174059 -0.451342
-0.64513 -0.320094 -0.320186
-0.708744 -0.279117 -0.279209
-0.824977 -0.399544 -0.399629
-0.871556 -0.342796 -0.342881
-0.677103 -0.144534 -0.355804
-0.759307 -0.120678 -0.276547
-0.851668 -0.174059 -0.451342
-0.92277 -0.142846 -0.337124
-0.708744 -0.279117 -0.279209
-0.770313 -0.236608 -0.236682
-0.871556 -0.342796 -0.342881
-0.914828 -0.285422 -0.28549
-0.568965 7.12578e-06 -0.23577
-0.536803 -0.00243579 -0.115895
-0.743792 -0.00569428 -0.311526
-0.749285 -0.0104482 -0.159008
-0.600423 -0.0913891 -0.212121
-0.570324 -0.105889 -0.105941
-0.759307 -0.120678 -0.276547
-0.757516 -0.142377 -0.142429
-0.536803 -0.00243579 -0.115895
-0.499919 8.66319e-06 -1.86348e-05
-0.749285 -0.0104482 -0.159008
-0.745603 -0.00993262 -0.00995992
-0.570324 -0.105889 -0.105941
-0.5368 -0.115842 -0.00246181
-0.757516 -0.142377 -0.142429
-0.749282 -0.158955 -0.0104742
-0.743792 -0.00569428 -0.311526
-0.749285 -0.0104482 -0.159008
-0.923809 6.23047e-06 -0.382745
-0.969318 -0.00332256 -0.190678
-0.759307 -0.120678 -0.276547
-0.757516 -0.142377 -0.142429
-0.92277 -0.142846 -0.337124
-0.951157 -0.169904 -0.16995
-0.749285 -0.0104482 -0.159008
-0.745603 -0.00993262 -0.00995992
-0.969318 -0.00332256 -0.190678
-0.999909 9.04036e-06 -1.60232e-05
-0.757516 -0.142377 -0.142429
-0.749282 -0.158955 -0.0104742
-0.951157 -0.169904 -0.16995
-0.96931 -0.190631 -0.00334581
-0.600423 -0.0913891 -0.212121
-0.570324 -0.105889 -0.105941
-0.759307 -0.120678 -0.276547
-0.757516 -0.142377 -0.142429
-0.629339 -0.184272 -0.184346
-0.600413 -0.212034 -0.0914336
-0.770313 -0.236608 -0.236682
-0.759298 -0.27646 -0.120722
-0.570324 -0.105889 -0.105941
-0.5368 -0.115842 -0.00246181
-0.757516 -0.142377 -0.142429
-0.749282 -0.158955 -0.0104742
-0.600413 -0.212034 -0.0914336
-0.568955 -0.235679 -1.55978e-05
-0.759298 -0.27646 -0.120722
-0.743782 -0.311435 -0.005717
-0.759307 -0.120678 -0.276547
-0.757516 -0.142377 -0.142429
-0.92277 -0.142846 -0.337124
-0.951157 -0.169904 -0.16995
-0.770313 -0.236608 -0.236682
-0.759298 -0.27646 -0.120722
-0.914828 -0.285422 -0.28549
-0.922758 -0.337041 -0.142885
-0.757516 -0.142377 -0.142429
-0.749282 -0.158955 -0.0104742
-0.951157 -0.169904 -0.16995
-0.96931 -0.190631 -0.00334581
-0.759298 -0.27646 -0.120722
-0.743782 -0.311435 -0.005717
-0.922758 -0.337041 -0.142885
-0.923791 -0.382658 -1.34221e-05
-0.47134 -0.23568 -0.235772
-0.550649 -0.2112 -0.211292
-0.64513 -0.320094 -0.320186
-0.708744 -0.279117 -0.279209
-0.4143 -0.299504 -0.117386
-0.507816 -0.257831 -0.10585
-0.591253 -0.431529 -0.165901
-0.677093 -0.355677 -0.144588
-0.550649 -0.2112 -0.211292
-0.629339 -0.184272 -0.184346
-0.708744 -0.279117 -0.279209
-0.770313 -0.236608 -0.236682
-0.507816 -0.257831 -0.10585
-0.600413 -0.212034 -0.0914336
-0.677093 -0.355677 -0.144588
-0.759298 -0.27646 -0.120722
-0.64513 -0.320094 -0.320186
-0.708744 -0.279117 -0.279209
-0.824977 -0.399544 -0.399629
-0.871556 -0.342796 -0.342881
-0.591253 -0.431529 -0.165901
-0.677093 -0.355677 -0.144588
-0.773788 -0.56323 -0.202717
-0.851651 -0.451216 -0.174105
-0.708744 -0.279117 -0.279209
-0.770313 -0.236608 -0.236682
-0.871556 -0.342796 -0.342881
-0.914828 -0.285422 -0.28549
-0.677093 -0.355677 -0.144588
-0.759298 -0.27646 -0.120722
-0.851651 -0.451216 -0.174105
-0.922758 -0.337041 -0.142885
-0.4143 -0.299504 -0.117386
-0.507816 -0.257831 -0.10585
-0.591253 -0.431529 -0.165901
-0.677093 -0.355677 -0.144588
-0.353487 -0.353508 -1.79155e-05
-0.461909 -0.297786 -0.00172596
-0.528759 -0.528779 -0.0101199
-0.639291 -0.42338 -0.00995206
-0.507816 -0.257831 -0.10585
-0.600413 -0.212034 -0.0914336
-0.677093 -0.355677 -0.144588
-0.759298 -0.27646 -0.120722
-0.461909 -0.297786 -0.00172596
-0.568955 -0.235679 -1.55978e-05
-0.639291 -0.42338 -0.00995206
-0.743782 -0.311435 -0.005717
-0.591253 -0.431529 -0.165901
-0.677093 -0.355677 -0.144588
-0.773788 -0.56323 -0.202717
-0.851651 -0.451216 -0.174105
-0.528759 -0.528779 -0.0101199
-0.639291 -0.42338 -0.00995206
-0.707033 -0.707055 -1.56638e-05
-0.821511 -0.547984 -0.00289163
-0.677093 -0.355677 -0.144588
-0.759298 -0.27646 -0.120722
-0.851651 -0.451216 -0.174105
-0.922758 -0.337041 -0.142885
-0.639291 -0.42338 -0.00995206
-0.743782 -0.311435 -0.005717
-0.821511 -0.547984 -0.00289163
-0.923791 -0.382658 -1.34221e-05
-0.353495 8.49761e-06 -0.353645
-0.461917 -0.00169955 -0.297924
-0.414309 -0.117332 -0.299631
-0.507826 -0.105797 -0.257958
-0.174082 -0.0144893 -0.174202
-0.353643 -0.0141615 -0.152458
-0.294358 -0.154863 -0.154943
-0.431953 -0.13413 -0.13421
-0.461917 -0.00169955 -0.297924
-0.568965 7.12578e-06 -0.23577
-0.507826 -0.105797 -0.257958
-0.600423 -0.0913891 -0.212121
-0.353643 -0.0141615 -0.152458
-0.536803 -0.00243579 -0.115895
-0.431953 -0.13413 -0.13421
-0.570324 -0.105889 -0.105941
-0.414309 -0.117332 -0.299631
-0.507826 -0.105797 -0.257958
-0.47134 -0.23568 -0.235772
-0.550649 -0.2112 -0.211292
-0.294358 -0.154863 -0.154943
-0.431953 -0.13413 -0.13421
-0.4143 -0.299504 -0.117386
-0.507816 -0.257831 -0.10585
-0.507826 -0.105797 -0.257958
-0.600423 -0.0913891 -0.212121
-0.550649 -0.2112 -0.211292
-0.629339 -0.184272 -0.184346
-0.431953 -0.13413 -0.13421
-0.570324 -0.105889 -0.105941
-0.507816 -0.257831 -0.10585
-0.600413 -0.212034 -0.0914336
-0.174082 -0.0144893 -0.174202
-0.353643 -0.0141615 -0.152458
-0.294358 -0.154863 -0.154943
-0.431953 -0.13413 -0.13421
4.00229e-05 1.31096e-05 -2.84328e-05
-0.243756 -0.0126144 -0.0126559
-0.174094 -0.174121 -0.0145284
-0.353655 -0.152376 -0.0142005
-0.353643 -0.0141615 -0.152458
-0.536803 -0.00243579 -0.115895
-0.431953 -0.13413 -0.13421
-0.570324 -0.105889 -0.105941
-0.243756 -0.0126144 -0.0126559
-0.499919 8.66319e-06 -1.86348e-05
-0.353655 -0.152376 -0.0142005
-0.5368 -0.115842 -0.00246181
-0.294358 -0.154863 -0.154943
-0.431953 -0.13413 -0.13421
-0.4143 -0.299504 -0.117386
-0.507816 -0.257831 -0.10585
-0.174094 -0.174121 -0.0145284
-0.353655 -0.152376 -0.0142005
-0.353487 -0.353508 -1.79155e-05
-0.461909 -0.297786 -0.00172596
-0.431953 -0.13413 -0.13421
-0.570324 -0.105889 -0.105941
-0.507816 -0.257831 -0.10585
-0.600413 -0.212034 -0.0914336
-0.353655 -0.152376 -0.0142005
-0.5368 -0.115842 -0.00246181
-0.461909 -0.297786 -0.00172596
-0.568955 -0.235679 -1.55978e-05
0.353509 -3.58758e-06 0.353639
0.411138 0.117657 0.285404
0.537374 -0.0281814 0.537504
0.596718 0.137255 0.402442
0.459949 -0.00425472 0.291174
0.503537 0.102395 0.243106
0.64161 -0.0301195 0.417877
0.678214 0.118475 0.329258
0.411138 0.117657 0.285404
0.471352 0.235685 0.235765
0.596718 0.137255 0.402442
0.660995 0.312248 0.3123
0.503537 0.102395 0.243106
0.548526 0.208461 0.208539
0.678214 0.118475 0.329258
0.717561 0.269694 0.269756
0.537374 -0.0281814 0.537504
0.596718 0.137255 0.402442
0.707067 -2.34923e-06 0.707189
0.757765 0.193315 0.519772
0.64161 -0.0301195 0.417877
0.678214 0.118475 0.329258
0.807831 -0.0161498 0.544576
0.831542 0.161699 0.42182
0.596718 0.137255 0.402442
0.660995 0.312248 0.3123
0.757765 0.193315 0.519772
0.81647 0.40823 0.408255
0.678214 0.118475 0.329258
0.717561 0.269694 0.269756
0.831542 0.161699 0.42182
0.859879 0.346719 0.346762
0.459949 -0.00425472 0.291174
0.503537 0.102395 0.243106
0.64161 -0.0301195 0.417877
0.678214 0.118475 0.329258
0.568978 -3.52016e-06 0.235764
0.59844 0.0930917 0.205936
0.753849 -0.013821 0.304246
0.766569 0.108336 0.258918
0.503537 0.102395 0.243106
0.548526 0.208461 0.208539
0.678214 0.118475 0.329258
0.717561 0.269694 0.269756
0.59844 0.0930917 0.205936
0.628498 0.185144 0.185203
0.766569 0.108336 0.258918
0.78081 0.229522 0.229579
0.64161 -0.0301195 0.417877
0.678214 0.118475 0.329258
0.807831 -0.0161498 0.544576
0.831542 0.161699 0.42182
0.753849 -0.013821 0.304246
0.766569 0.108336 0.258918
0.923822 -3.01112e-06 0.382738
0.917466 0.143667 0.322822
0.678214 0.118475 0.329258
0.717561 0.269694 0.269756
0.831542 0.161699 0.42182
0.859879 0.346719 0.346762
0.766569 0.108336 0.258918
0.78081 0.229522 0.229579
0.917466 0.143667 0.322822
0.913905 0.286922 0.28697
0.471352 0.235685 0.235765
0.411126 0.285288 0.117699
0.660995 0.312248 0.3123
0.596707 0.402344 0.137284
0.548526 0.208461 0.208539
0.503524 0.242992 0.102435
0.717561 0.269694 0.269756
0.678202 0.329154 0.118508
0.411126 0.285288 0.117699
0.353496 0.353513 8.8715e-06
0.596707 0.402344 0.137284
0.537362 0.537378 -0.028169
[...]
POINT_DATA 8192
SCALARS M_0 double 1
LOOKUP_TABLE default
0.9983 1.0006 0.996278 1.00071 1.00006 1.0019 1.00005 1.00228 1.0006 1.00215 1.00071 1.00548 1.0019 1.00345 1.00228 1.00454 0.996278 1.00071 0.995569 1.00061 1.00005 1.00228 1.00005 1.00259 1.00071 1.00548 1.00061 1.00664 1.00228 1.00454 1.00259 1.00381 1.00006 1.0019 1.00005 1.00228 1.00206 1.0029 1.00388 1.00413 1.0019 1.00345 1.00228 1.00454 1.0029 1.00441 1.00413 1.00683 1.00005 1.00228 1.00005 1.00259 1.00388 1.00413 1.00183 1.00281 1.00228 1.00454 1.00259 1.00381 1.00413 1.00683 1.00281 1.00985 1.00215 1.00253 1.00548 1.00447 1.00345 1.00364 1.00454 1.00618 1.00253 1.00238 1.00447 1.00814 1.00364 1.0029 1.00618 1.00603 1.00548 1.00447 1.00664 1.00602 1.00454 1.00618 1.00381 1.00571 1.00447 1.00814 1.00602 1.01174 1.00618 1.00603 1.00571 1.01538 1.00345 1.00364 1.00454 1.00618 1.00441 1.00534 1.00683 1.00546 1.00364 1.0029 1.00618 1.00603 1.00534 1.00625 1.00546 1.00436 1.00454 1.00618 1.00381 1.00571 1.00683 1.00546 1.00985 1.01012 1.00618 1.00603 1.00571 1.01538 1.00546 1.00436 1.01012 1.00862 1.00206 1.0029 1.00388 1.00413 1.00173 1.00326 1.00545 1.00642 1.0029 1.00441 1.00413 1.00683 1.00326 1.00534 1.00642 1.00546 1.00388 1.00413 1.00183 1.00281 1.00545 1.00642 1.00744 1.00925 1.00413 1.00683 1.00281 1.00985 1.00642 1.00546 1.00925 1.01012 1.00173 1.00326 1.00545 1.00642 1.0046 1.00249 1.00654 1.00505 1.00326 1.00534 1.00642 1.00546 1.00249 1.00625 1.00505 1.00436 1.00545 1.00642 1.00744 1.00925 1.00654 1.00505 1.01279 1.00682 1.00642 1.00546 1.00925 1.01012 1.00505 1.00436 1.00682 1.00862 0.9983 1.0006 1.00006 1.0019 0.999438 1.00091 1.00101 1.00208 1.0006 1.00215 1.0019 1.00345 1.00091 1.00253 1.00208 1.00364 1.00006 1.0019 1.00206 1.0029 1.00101 1.00208 1.00173 1.00326 1.0019 1.00345 1.0029 1.00441 1.00208 1.00364 1.00326 1.00534 0.999438 1.00091 1.00101 1.00208 0.999852 1.00059 1.00103 1.00162 1.00091 1.00253 1.00208 1.00364 1.00059 1.00238 1.00162 1.0029 1.00101 1.00208 1.00173 1.00326 1.00103 1.00162 1.0046 1.00249 1.00208 1.00364 1.00326 1.00534 1.00162 1.0029 1.00249 1.00625 0.99796 1.00023 0.997272 1.00051 1.00041 1.00236 1.00092 1.00249 1.00023 1.00245 1.00051 1.00437 1.00236 1.00386 1.00249 1.00649 0.997272 1.00051 0.994197 1.00108 1.00092 1.00249 1.00082 1.00233 1.00051 1.00437 1.00108 1.00701 1.00249 1.00649 1.00233 1.00615 1.00041 1.00236 1.00092 1.00249 1.00161 1.0043 1.0039 1.00589 1.00236 1.00386 1.00249 1.00649 1.0043 1.00298 1.00589 1.00516 1.00092 1.00249 1.00082 1.00233 1.0039 1.00589 1.00945 1.00911 1.00249 1.00649 1.00233 1.00615 1.00589 1.00516 1.00911 1.00877 1.00245 1.0025 1.00437 1.00778 1.00386 1.0047 1.00649 1.00698 1.0025 1.00302 1.00778 1.00874 1.0047 1.00345 1.00698 1.00684 1.00437 1.00778 1.00701 1.00908 1.00649 1.00698 1.00615 1.01281 1.00778 1.00874 1.00908 1.01001 1.00698 1.00684 1.01281 1.00773 1.00386 1.0047 1.00649 1.00698 1.00298 1.0053 1.00516 1.0059 1.0047 1.00345 1.00698 1.00684 1.0053 1.00578 1.0059 1.00864 1.00649 1.00698 1.00615 1.01281 1.00516 1.0059 1.00877 1.00852 1.00698 1.00684 1.01281 1.00773 1.0059 1.00864 1.00852 1.00562 1.00161 1.0043 1.0039 1.00589 1.00268 1.00523 1.00551 1.00824 1.0043 1.00298 1.00589 1.00516 1.00523 1.0053 1.00824 1.0059 1.0039 1.00589 1.00945 1.00911 1.00551 1.00824 1.01016 1.00741 1.00589 1.00516 1.00911 1.00877 1.00824 1.0059 1.00741 1.00852 1.00268 1.00523 1.00551 1.00824 1.0042 1.00402 1.00549 1.00557 1.00523 1.0053 1.00824 1.0059 1.00402 1.00578 1.00557 1.00864 1.00551 1.00824 1.01016 1.00741 1.00549 1.00557 1.01531 1.01152 1.00824 1.0059 1.00741 1.00852 1.00557 1.00864 1.01152 1.00562 0.99796 1.00023 1.00041 1.00236 0.999513 1.00111 1.00117 1.00274 1.00023 1.00245 1.00236 1.00386 1.00111 1.0025 1.00274 1.0047 1.00041 1.00236 1.00161 1.0043 1.00117 1.00274 1.00268 1.00523 1.00236 1.00386 1.0043 1.00298 1.00274 1.0047 1.00523 1.0053 0.999513 1.00111 1.00117 1.00274 0.999852 1.00119 1.00094 1.00191 1.00111 1.0025 1.00274 1.0047 1.00119 1.00302 1.00191 1.00345 1.00117 1.00274 1.00268 1.00523 1.00094 1.00191 1.0042 1.00402 1.00274 1.0047 1.00523 1.0053 1.00191 1.00345 1.00402 1.00578 0.993178 0.993239 0.982547 0.989036 0.994251 0.991773 0.990921 0.984237 0.993239 0.992472 0.989036 0.988977 0.991773 0.990788 0.984237 0.988271 0.982547 0.989036 0.983741 0.969311 0.990921 0.984237 0.979463 0.983794 0.989036 0.988977 0.969311 0.98612 0.984237 0.988271 0.983794 0.977046 0.994251 0.991773 0.990921 0.984237 0.98998 0.990546 0.986499 0.987738 0.991773 0.990788 0.984237 0.988271 0.990546 0.99326 0.987738 0.992945 0.990921 0.984237 0.979463 0.983794 0.986499 0.987738 0.978863 0.985161 0.984237 0.988271 0.983794 0.977046 0.987738 0.992945 0.985161 0.978603 0.992472 0.995823 0.988977 0.994013 0.990788 0.996739 0.988271 0.988817 0.995823 0.99873 0.994013 0.997468 0.996739 0.995932 0.988817 0.993502 0.988977 0.994013 0.98612 0.99073 0.988271 0.988817 0.977046 0.990247 0.994013 0.997468 0.99073 0.993476 0.988817 0.993502 0.990247 0.993205 0.990788 0.996739 0.988271 0.988817 0.99326 0.994031 0.992945 0.986688 0.996739 0.995932 0.988817 0.993502 0.994031 0.995216 0.986688 0.993227 0.988271 0.988817 0.977046 0.990247 0.992945 0.986688 0.978603 0.984778 0.988817 0.993502 0.990247 0.993205 0.986688 0.993227 0.984778 0.989526 0.98998 0.990546 0.986499 0.987738 0.995532 0.993342 0.993496 0.994042 0.990546 0.99326 0.987738 0.992945 0.993342 0.994031 0.994042 0.986688 0.986499 0.987738 0.978863 0.985161 0.993496 0.994042 0.987825 0.98887 0.987738 0.992945 0.985161 0.978603 0.994042 0.986688 0.98887 0.984778 0.995532 0.993342 0.993496 0.994042 0.998493 0.997642 0.996542 0.9957 0.993342 0.994031 0.994042 0.986688 0.997642 0.995216 0.9957 0.993227 0.993496 0.994042 0.987825 0.98887 0.996542 0.9957 0.994959 0.992389 0.994042 0.986688 0.98887 0.984778 0.9957 0.993227 0.992389 0.989526 0.993178 0.993239 0.994251 0.991773 0.998229 0.996626 0.996804 0.995654 0.993239 0.992472 0.991773 0.990788 0.996626 0.995823 0.995654 0.996739 0.994251 0.991773 0.98998 0.990546 0.996804 0.995654 0.995532 0.993342 0.991773 0.990788 0.990546 0.99326 0.995654 0.996739 0.993342 0.994031 0.998229 0.996626 0.996804 0.995654 0.999852 0.999234 0.999374 0.998417 0.996626 0.995823 0.995654 0.996739 0.999234 0.99873 0.998417 0.995932 0.996804 0.995654 0.995532 0.993342 0.999374 0.998417 0.998493 0.997642 0.995654 0.996739 0.993342 0.994031 0.998417 0.995932 0.997642 0.995216 0.992941 0.993636 0.98789 0.98525 0.990289 0.991869 0.990424 0.988808 0.993636 0.995517 0.98525 0.990278 0.991869 0.990014 0.988808 0.993425 0.98789 0.98525 0.973503 0.985584 0.990424 0.988808 0.981095 0.978061 0.98525 0.990278 0.985584 0.984946 0.988808 0.993425 0.978061 0.986443 0.990289 0.991869 0.990424 0.988808 0.993698 0.990594 0.989107 0.98753 0.991869 0.990014 0.988808 0.993425 0.990594 0.987964 0.98753 0.984254 0.990424 0.988808 0.981095 0.978061 0.989107 0.98753 0.978098 0.983261 0.988808 0.993425 0.978061 0.986443 0.98753 0.984254 0.983261 0.984522 0.995517 0.995566 0.990278 0.99069 0.990014 0.995117 0.993425 0.990577 0.995566 0.99836 0.99069 0.996551 0.995117 0.996348 0.990577 0.993541 0.990278 0.99069 0.984946 0.988344 0.993425 0.990577 0.986443 0.986236 0.99069 0.996551 0.988344 0.996318 0.990577 0.993541 0.986236 0.990531 0.990014 0.995117 0.993425 0.990577 0.987964 0.995489 0.984254 0.98797 0.995117 0.996348 0.990577 0.993541 0.995489 0.995295 0.98797 0.991893 0.993425 0.990577 0.986443 0.986236 0.984254 0.98797 0.984522 0.991091 0.990577 0.993541 0.986236 0.990531 0.98797 0.991893 0.991091 0.993084 0.993698 0.990594 0.989107 0.98753 0.996644 0.993129 0.990268 0.991557 0.990594 0.987964 0.98753 0.984254 0.993129 0.995489 0.991557 0.98797 0.989107 0.98753 0.978098 0.983261 0.990268 0.991557 0.986825 0.982721 0.98753 0.984254 0.983261 0.984522 0.991557 0.98797 0.982721 0.991091 0.996644 0.993129 0.990268 0.991557 0.997893 0.996995 0.995881 0.992875 0.993129 0.995489 0.991557 0.98797 0.996995 0.995295 0.992875 0.991893 0.990268 0.991557 0.986825 0.982721 0.995881 0.992875 0.994969 0.992639 0.991557 0.98797 0.982721 0.991091 0.992875 0.991893 0.992639 0.993084 0.992941 0.993636 0.990289 0.991869 0.998168 0.998118 0.996458 0.995049 0.993636 0.995517 0.991869 0.990014 0.998118 0.995566 0.995049 0.995117 0.990289 0.991869 0.993698 0.990594 0.996458 0.995049 0.996644 0.993129 0.991869 0.990014 0.990594 0.987964 0.995049 0.995117 0.993129 0.995489 0.998168 0.998118 0.996458 0.995049 0.999852 0.999386 0.999193 0.997899 0.998118 0.995566 0.995049 0.995117 0.999386 0.99836 0.997899 0.996348 0.996458 0.995049 0.996644 0.993129 0.999193 0.997899 0.997893 0.996995 0.995049 0.995117 0.993129 0.995489 0.997899 0.996348 0.996995 0.995295 0.998148 1.00025 0.996335 1.00072 1.00059 1.00114 1.00103 1.00289 1.00025 1.00249 1.00072 1.00451 1.00114 1.00373 1.00289 1.00446 0.996335 1.00072 0.997147 1.00044 1.00103 1.00289 1.00076 1.00298 1.00072 1.00451 1.00044 1.00626 1.00289 1.00446 1.00298 1.00916 1.00059 1.00114 1.00103 1.00289 1.00275 1.00372 1.00476 1.00455 1.00114 1.00373 1.00289 1.00446 1.00372 1.00597 1.00455 1.00778 1.00103 1.00289 1.00076 1.00298 1.00476 1.00455 1.00501 1.00711 1.00289 1.00446 1.00298 1.00916 1.00455 1.00778 1.00711 1.00731 1.00249 1.00317 1.00451 1.00558 1.00373 1.00462 1.00446 1.00567 1.00317 1.00352 1.00558 1.00825 1.00462 1.00494 1.00567 1.00622 1.00451 1.00558 1.00626 1.00902 1.00446 1.00567 1.00916 1.01453 1.00558 1.00825 1.00902 1.01229 1.00567 1.00622 1.01453 1.01571 1.00373 1.00462 1.00446 1.00567 1.00597 1.0064 1.00778 1.0071 1.00462 1.00494 1.00567 1.00622 1.0064 1.00774 1.0071 1.00786 1.00446 1.00567 1.00916 1.01453 1.00778 1.0071 1.00731 1.01216 1.00567 1.00622 1.01453 1.01571 1.0071 1.00786 1.01216 1.00589 1.00275 1.00372 1.00476 1.00455 1.00219 1.00518 1.00717 1.00417 1.00372 1.00597 1.00455 1.00778 1.00518 1.0064 1.00417 1.0071 1.00476 1.00455 1.00501 1.00711 1.00717 1.00417 1.00819 1.00916 1.00455 1.00778 1.00711 1.00731 1.00417 1.0071 1.00916 1.01216 1.00219 1.00518 1.00717 1.00417 1.00404 1.0024 1.0086 1.00778 1.00518 1.0064 1.00417 1.0071 1.0024 1.00774 1.00778 1.00786 1.00717 1.00417 1.00819 1.00916 1.0086 1.00778 1.01172 1.0103 1.00417 1.0071 1.00916 1.01216 1.00778 1.00786 1.0103 1.00589 0.998148 1.00025 1.00059 1.00114 0.999461 1.001 1.00083 1.00187 1.00025 1.00249 1.00114 1.00373 1.001 1.00317 1.00187 1.00462 1.00059 1.00114 1.00275 1.00372 1.00083 1.00187 1.00219 1.00518 1.00114 1.00373 1.00372 1.00597 1.00187 1.00462 1.00518 1.0064 0.999461 1.001 1.00083 1.00187 0.999852 1.00109 1.00102 1.00161 1.001 1.00317 1.00187 1.00462 1.00109 1.00352 1.00161 1.00494 1.00083 1.00187 1.00219 1.00518 1.00102 1.00161 1.00404 1.0024 1.00187 1.00462 1.00518 1.0064 1.00161 1.00494 1.0024 1.00774 1.00257 1.00266 1.00674 1.00723 1.00329 1.00452 1.00659 1.00529 1.00266 1.0024 1.00723 1.00376 1.00452 1.00481 1.00529 1.00539 1.00674 1.00723 1.00767 1.01068 1.00659 1.00529 1.01117 1.00897 1.00723 1.00376 1.01068 1.00461 1.00529 1.00539 1.00897 1.00581 1.00329 1.00452 1.00659 1.00529 1.00591 1.00625 1.00806 1.00795 1.00452 1.00481 1.00529 1.00539 1.00625 1.00585 1.00795 1.00666 1.00659 1.00529 1.01117 1.00897 1.00806 1.00795 1.01138 1.01016 1.00529 1.00539 1.00897 1.00581 1.00795 1.00666 1.01016 1.00685 1.0024 0.999969 1.00376 0.999647 1.00481 1.0023 1.00539 1.00306 0.999969 0.998446 0.999647 0.99808 1.0023 1.0006 1.00306 1.00066 1.00376 0.999647 1.00461 0.999705 1.00539 1.00306 1.00581 1.00426 0.999647 0.99808 0.999705 0.993738 1.00306 1.00066 1.00426 1.00102 1.00481 1.0023 1.00539 1.00306 1.00585 1.00304 1.00666 1.00643 1.0023 1.0006 1.00306 1.00066 1.00304 1.00342 1.00643 1.00478 1.00539 1.00306 1.00581 1.00426 1.00666 1.00643 1.00685 1.00532 1.00306 1.00066 1.00426 1.00102 1.00643 1.00478 1.00532 1.00658 1.00591 1.00625 1.00806 1.00795 1.0047 1.0045 1.00828 1.00569 1.00625 1.00585 1.00795 1.00666 1.0045 1.00304 1.00569 1.00643 1.00806 1.00795 1.01138 1.01016 1.00828 1.00569 1.01257 1.00614 1.00795 1.00666 1.01016 1.00685 1.00569 1.00643 1.00614 1.00532 1.0047 1.0045 1.00828 1.00569 1.00208 1.00285 1.00518 1.00591 1.0045 1.00304 1.00569 1.00643 1.00285 1.00342 1.00591 1.00478 1.00828 1.00569 1.01257 1.00614 1.00518 1.00591 1.01346 1.00774 1.00569 1.00643 1.00614 1.00532 1.00591 1.00478 1.00774 1.00658 1.00257 1.00266 1.00329 1.00452 1.00088 1.00078 1.00267 1.00257 1.00266 1.0024 1.00452 1.00481 1.00078 0.999969 1.00257 1.0023 1.00329 1.00452 1.00591 1.00625 1.00267 1.00257 1.0047 1.0045 1.00452 1.00481 1.00625 1.00585 1.00257 1.0023 1.0045 1.00304 1.00088 1.00078 1.00267 1.00257 0.999852 0.999514 1.00128 1.00083 1.00078 0.999969 1.00257 1.0023 0.999514 0.998446 1.00083 1.0006 1.00267 1.00257 1.0047 1.0045 1.00128 1.00083 1.00208 1.00285 1.00257 1.0023 1.0045 1.00304 1.00083 1.0006 1.00285 1.00342 1.00257 1.00329 1.00674 1.00659 1.00257 1.00178 1.00751 1.00542 1.00329 1.00591 1.00659 1.00806 1.00178 1.00638 1.00542 1.00836 1.00674 1.00659 1.00767 1.01117 1.00751 1.00542 1.00637 1.00519 1.00659 1.00806 1.01117 1.01138 1.00542 1.00836 1.00519 1.00306 1.00257 1.00178 1.00751 1.00542 1.00178 1.00274 1.00388 1.00629 1.00178 1.00638 1.00542 1.00836 1.00274 1.00493 1.00629 1.00816 1.00751 1.00542 1.00637 1.00519 1.00388 1.00629 1.00475 1.00728 1.00542 1.00836 1.00519 1.00306 1.00629 1.00816 1.00728 1.00779 1.00591 1.0047 1.00806 1.00828 1.00638 1.00298 1.00836 1.00539 1.0047 1.00208 1.00828 1.00518 1.00298 1.00354 1.00539 1.00788 1.00806 1.00828 1.01138 1.01257 1.00836 1.00539 1.00306 1.01039 1.00828 1.00518 1.01257 1.01346 1.00539 1.00788 1.01039 1.01141 1.00638 1.00298 1.00836 1.00539 1.00493 1.00348 1.00816 1.00642 1.00298 1.00354 1.00539 1.00788 1.00348 1.00193 1.00642 1.00385 1.00836 1.00539 1.00306 1.01039 1.00816 1.00642 1.00779 1.01181 1.00539 1.00788 1.01039 1.01141 1.00642 1.00385 1.01181 1.00413 1.00178 1.00274 1.00388 1.00629 0.999939 1.00202 0.999831 1.00278 1.00274 1.00493 1.00629 1.00816 1.00202 1.00348 1.00278 1.00642 1.00388 1.00629 1.00475 1.00728 0.999831 1.00278 0.999722 1.00402 1.00629 1.00816 1.00728 1.00779 1.00278 1.00642 1.00402 1.01181 0.999939 1.00202 0.999831 1.00278 0.998493 1.00039 0.996542 1.00049 1.00202 1.00348 1.00278 1.00642 1.00039 1.00193 1.00049 1.00385 0.999831 1.00278 0.999722 1.00402 0.996542 1.00049 0.994959 1.00039 1.00278 1.00642 1.00402 1.01181 1.00049 1.00385 1.00039 1.00413 1.00257 1.00329 1.00257 1.00178 1.00088 1.00267 1.00085 1.00303 1.00329 1.00591 1.00178 1.00638 1.00267 1.0047 1.00303 1.00298 1.00257 1.00178 1.00178 1.00274 1.00085 1.00303 0.999939 1.00202 1.00178 1.00638 1.00274 1.00493 1.00303 1.00298 1.00202 1.00348 1.00088 1.00267 1.00085 1.00303 0.999852 1.00128 0.999374 1.00099 1.00267 1.0047 1.00303 1.00298 1.00128 1.00208 1.00099 1.00354 1.00085 1.00303 0.999939 1.00202 0.999374 1.00099 0.998493 1.00039 1.00303 1.00298 1.00202 1.00348 1.00099 1.00354 1.00039 1.00193 0.99796 1.00041 0.997272 1.00092 1.00016 1.00155 1.00007 1.00293 1.00041 1.00161 1.00092 1.0039 1.00155 1.00476 1.00293 1.00576 0.997272 1.00092 0.994197 1.00082 1.00007 1.00293 0.999542 1.00293 1.00092 1.0039 1.00082 1.00945 1.00293 1.00576 1.00293 1.00454 1.00016 1.00155 1.00007 1.00293 1.00277 1.00241 1.00416 1.0055 1.00155 1.00476 1.00293 1.00576 1.00241 1.00522 1.0055 1.00715 1.00007 1.00293 0.999542 1.00293 1.00416 1.0055 1.00285 1.00739 1.00293 1.00576 1.00293 1.00454 1.0055 1.00715 1.00739 1.0134 1.00161 1.00268 1.0039 1.00551 1.00476 1.00244 1.00576 1.00847 1.00268 1.0042 1.00551 1.00549 1.00244 1.00413 1.00847 1.00557 1.0039 1.00551 1.00945 1.01016 1.00576 1.00847 1.00454 1.01398 1.00551 1.00549 1.01016 1.01531 1.00847 1.00557 1.01398 1.00809 1.00476 1.00244 1.00576 1.00847 1.00522 1.00366 1.00715 1.00444 1.00244 1.00413 1.00847 1.00557 1.00366 1.00437 1.00444 1.00715 1.00576 1.00847 1.00454 1.01398 1.00715 1.00444 1.0134 1.01089 1.00847 1.00557 1.01398 1.00809 1.00444 1.00715 1.01089 1.00722 1.00277 1.00241 1.00416 1.0055 1.00321 1.00491 1.00452 1.00573 1.00241 1.00522 1.0055 1.00715 1.00491 1.00366 1.00573 1.00444 1.00416 1.0055 1.00285 1.00739 1.00452 1.00573 1.01134 1.0077 1.0055 1.00715 1.00739 1.0134 1.00573 1.00444 1.0077 1.01089 1.00321 1.00491 1.00452 1.00573 1.00352 1.00444 1.00825 1.00779 1.00491 1.00366 1.00573 1.00444 1.00444 1.00437 1.00779 1.00715 1.00452 1.00573 1.01134 1.0077 1.00825 1.00779 1.01229 1.0121 1.00573 1.00444 1.0077 1.01089 1.00779 1.00715 1.0121 1.00722 0.99796 1.00041 1.00016 1.00155 0.999513 1.00117 1.00112 1.00248 1.00041 1.00161 1.00155 1.00476 1.00117 1.00268 1.00248 1.00244 1.00016 1.00155 1.00277 1.00241 1.00112 1.00248 1.00321 1.00491 1.00155 1.00476 1.00241 1.00522 1.00248 1.00244 1.00491 1.00366 0.999513 1.00117 1.00112 1.00248 0.999852 1.00094 1.00109 1.00187 1.00117 1.00268 1.00248 1.00244 1.00094 1.0042 1.00187 1.00413 1.00112 1.00248 1.00321 1.00491 1.00109 1.00187 1.00352 1.00444 1.00248 1.00244 1.00491 1.00366 1.00187 1.00413 1.00444 1.00437 0.998446 1.00004 0.99808 0.999577 1.0006 1.00192 1.00066 1.00245 1.00004 1.00256 0.999577 1.00323 1.00192 1.00257 1.00245 1.00482 0.99808 0.999577 0.993738 0.99968 1.00066 1.00245 1.00102 1.00181 0.999577 1.00323 0.99968 1.00122 1.00245 1.00482 1.00181 1.00172 1.0006 1.00192 1.00066 1.00245 1.00342 1.00279 1.00478 1.00355 1.00192 1.00257 1.00245 1.00482 1.00279 1.00213 1.00355 1.006 1.00066 1.00245 1.00102 1.00181 1.00478 1.00355 1.00658 1.00665 1.00245 1.00482 1.00181 1.00172 1.00355 1.006 1.00665 1.00968 1.00302 1.00506 1.00874 1.00713 1.00269 1.00344 1.00581 1.00857 1.00506 1.00642 1.00713 1.01009 1.00344 1.00523 1.00857 1.00711 1.00874 1.00713 1.01001 1.01012 1.00581 1.00857 1.00794 1.0124 1.00713 1.01009 1.01012 1.01133 1.00857 1.00711 1.0124 1.00975 1.00269 1.00344 1.00581 1.00857 1.00256 1.00257 1.00323 1.00482 1.00344 1.00523 1.00857 1.00711 1.00257 1.00213 1.00482 1.006 1.00581 1.00857 1.00794 1.0124 1.00323 1.00482 1.00122 1.00172 1.00857 1.00711 1.0124 1.00975 1.00482 1.006 1.00172 1.00968 1.00208 1.00285 1.00518 1.00591 1.00364 1.00296 1.00635 1.00588 1.00285 1.00342 1.00591 1.00478 1.00296 1.00279 1.00588 1.00355 1.00518 1.00591 1.01346 1.00774 1.00635 1.00588 1.00683 1.01017 1.00591 1.00478 1.00774 1.00658 1.00588 1.00355 1.01017 1.00665 1.00364 1.00296 1.00635 1.00588 1.00642 1.00523 1.01009 1.00711 1.00296 1.00279 1.00588 1.00355 1.00523 1.00213 1.00711 1.006 1.00635 1.00588 1.00683 1.01017 1.01009 1.00711 1.01133 1.00975 1.00588 1.00355 1.01017 1.00665 1.00711 1.006 1.00975 1.00968 0.999852 0.999514 1.00128 1.00083 1.00119 1.00062 1.00255 1.00148 0.999514 0.998446 1.00083 1.0006 1.00062 1.00004 1.00148 1.00192 1.00128 1.00083 1.00208 1.00285 1.00255 1.00148 1.00364 1.00296 1.00083 1.0006 1.00285 1.00342 1.00148 1.00192 1.00296 1.00279 1.00119 1.00062 1.00255 1.00148 1.00302 1.00269 1.00506 1.00344 1.00062 1.00004 1.00148 1.00192 1.00269 1.00256 1.00344 1.00257 1.00255 1.00148 1.00364 1.00296 1.00506 1.00344 1.00642 1.00523 1.00148 1.00192 1.00296 1.00279 1.00344 1.00257 1.00523 1.00213 1.00267 1.00282 1.00362 1.00587 1.0002 1.00208 1.00021 1.00379 1.00282 1.00522 1.00587 1.00747 1.00208 1.00404 1.00379 1.00498 1.00362 1.00587 1.00608 1.00824 1.00021 1.00379 1.00019 1.00416 1.00587 1.00747 1.00824 1.0048 1.00379 1.00498 1.00416 1.00786 1.0002 1.00208 1.00021 1.00379 0.9983 1.0006 0.996278 1.00071 1.00208 1.00404 1.00379 1.00498 1.0006 1.00215 1.00071 1.00548 1.00021 1.00379 1.00019 1.00416 0.996278 1.00071 0.995569 1.00061 1.00379 1.00498 1.00416 1.00786 1.00071 1.00548 1.00061 1.00664 1.00267 1.00372 1.00362 1.00449 1.00282 1.00466 1.00587 1.00713 1.00372 1.00257 1.00449 1.00674 1.00466 1.00235 1.00713 1.00695 1.00362 1.00449 1.00608 1.01513 1.00587 1.00713 1.00824 1.00513 1.00449 1.00674 1.01513 1.00767 1.00713 1.00695 1.00513 1.0066 1.00282 1.00466 1.00587 1.00713 1.00522 1.00486 1.00747 1.00689 1.00466 1.00235 1.00713 1.00695 1.00486 1.00628 1.00689 1.00655 1.00587 1.00713 1.00824 1.00513 1.00747 1.00689 1.0048 1.00992 1.00713 1.00695 1.00513 1.0066 1.00689 1.00655 1.00992 1.01209 1.00522 1.00486 1.00747 1.00689 1.00404 1.0038 1.00498 1.00771 1.00486 1.00628 1.00689 1.00655 1.0038 1.0034 1.00771 1.00604 1.00