# vtk DataFile Version 3.0
#This file was generated by the deal.II library on 2025/4/17 at 14:12:24
ASCII
DATASET UNSTRUCTURED_GRID

POINTS 8192 double
-0.353146 6.20341e-05 -0.354197
-0.461568 -0.00164601 -0.298476
-0.528417 -0.0100399 -0.529469
-0.63895 -0.00987211 -0.42407
-0.41396 -0.117279 -0.300183
-0.507477 -0.105743 -0.258511
-0.590913 -0.165794 -0.432208
-0.676754 -0.14448 -0.356356
-0.461568 -0.00164601 -0.298476
-0.568547 5.25152e-05 -0.236181
-0.63895 -0.00987211 -0.42407
-0.743374 -0.00564889 -0.311937
-0.507477 -0.105743 -0.258511
-0.600004 -0.0913437 -0.212532
-0.676754 -0.14448 -0.356356
-0.758888 -0.120632 -0.276958
-0.528417 -0.0100399 -0.529469
-0.63895 -0.00987211 -0.42407
-0.706717 5.08996e-05 -0.707727
-0.821196 -0.00282507 -0.548656
-0.590913 -0.165794 -0.432208
-0.676754 -0.14448 -0.356356
-0.773471 -0.202627 -0.563888
-0.851335 -0.174015 -0.451874
-0.63895 -0.00987211 -0.42407
-0.743374 -0.00564889 -0.311937
-0.821196 -0.00282507 -0.548656
-0.923385 4.63477e-05 -0.383119
-0.676754 -0.14448 -0.356356
-0.758888 -0.120632 -0.276958
-0.851335 -0.174015 -0.451874
-0.922347 -0.142806 -0.337497
-0.41396 -0.117279 -0.300183
-0.507477 -0.105743 -0.258511
-0.590913 -0.165794 -0.432208
-0.676754 -0.14448 -0.356356
-0.470952 -0.235545 -0.236192
-0.550261 -0.211065 -0.211712
-0.644743 -0.319958 -0.320605
-0.708357 -0.278981 -0.279628
-0.507477 -0.105743 -0.258511
-0.600004 -0.0913437 -0.212532
-0.676754 -0.14448 -0.356356
-0.758888 -0.120632 -0.276958
-0.550261 -0.211065 -0.211712
-0.628899 -0.184156 -0.184678
-0.708357 -0.278981 -0.279628
-0.769874 -0.236492 -0.237015
-0.590913 -0.165794 -0.432208
-0.676754 -0.14448 -0.356356
-0.773471 -0.202627 -0.563888
-0.851335 -0.174015 -0.451874
-0.644743 -0.319958 -0.320605
-0.708357 -0.278981 -0.279628
-0.824585 -0.399413 -0.400015
-0.871165 -0.342664 -0.343267
-0.676754 -0.14448 -0.356356
-0.758888 -0.120632 -0.276958
-0.851335 -0.174015 -0.451874
-0.922347 -0.142806 -0.337497
-0.708357 -0.278981 -0.279628
-0.769874 -0.236492 -0.237015
-0.871165 -0.342664 -0.343267
-0.914377 -0.285304 -0.285786
-0.568547 5.25152e-05 -0.236181
-0.536335 -0.00238908 -0.116164
-0.743374 -0.00564889 -0.311937
-0.748817 -0.0104015 -0.159277
-0.600004 -0.0913437 -0.212532
-0.569856 -0.105842 -0.10621
-0.758888 -0.120632 -0.276958
-0.757049 -0.14233 -0.142698
-0.536335 -0.00238908 -0.116164
-0.499434 6.27081e-05 -0.000131533
-0.748817 -0.0104015 -0.159277
-0.745118 -0.00987858 -0.0100728
-0.569856 -0.105842 -0.10621
-0.536315 -0.115788 -0.00257471
-0.757049 -0.14233 -0.142698
-0.748797 -0.158901 -0.0105871
-0.743374 -0.00564889 -0.311937
-0.748817 -0.0104015 -0.159277
-0.923385 4.63477e-05 -0.383119
-0.968818 -0.00327664 -0.190911
-0.758888 -0.120632 -0.276958
-0.757049 -0.14233 -0.142698
-0.922347 -0.142806 -0.337497
-0.950657 -0.169858 -0.170183
-0.748817 -0.0104015 -0.159277
-0.745118 -0.00987858 -0.0100728
-0.968818 -0.00327664 -0.190911
-0.999364 6.5581e-05 -0.000113443
-0.757049 -0.14233 -0.142698
-0.748797 -0.158901 -0.0105871
-0.950657 -0.169858 -0.170183
-0.968766 -0.190574 -0.00344323
-0.600004 -0.0913437 -0.212532
-0.569856 -0.105842 -0.10621
-0.758888 -0.120632 -0.276958
-0.757049 -0.14233 -0.142698
-0.628899 -0.184156 -0.184678
-0.599939 -0.211915 -0.091659
-0.769874 -0.236492 -0.237015
-0.758824 -0.276341 -0.120948
-0.569856 -0.105842 -0.10621
-0.536315 -0.115788 -0.00257471
-0.757049 -0.14233 -0.142698
-0.748797 -0.158901 -0.0105871
-0.599939 -0.211915 -0.091659
-0.568471 -0.23554 -0.000109853
-0.758824 -0.276341 -0.120948
-0.743298 -0.311296 -0.00581126
-0.758888 -0.120632 -0.276958
-0.757049 -0.14233 -0.142698
-0.922347 -0.142806 -0.337497
-0.950657 -0.169858 -0.170183
-0.769874 -0.236492 -0.237015
-0.758824 -0.276341 -0.120948
-0.914377 -0.285304 -0.285786
-0.922256 -0.336915 -0.143081
-0.757049 -0.14233 -0.142698
-0.748797 -0.158901 -0.0105871
-0.950657 -0.169858 -0.170183
-0.968766 -0.190574 -0.00344323
-0.758824 -0.276341 -0.120948
-0.743298 -0.311296 -0.00581126
-0.922256 -0.336915 -0.143081
-0.92326 -0.382507 -9.47318e-05
-0.470952 -0.235545 -0.236192
-0.550261 -0.211065 -0.211712
-0.644743 -0.319958 -0.320605
-0.708357 -0.278981 -0.279628
-0.413894 -0.299291 -0.117657
-0.50741 -0.257619 -0.106122
-0.590847 -0.431316 -0.166173
-0.676687 -0.355465 -0.144859
-0.550261 -0.211065 -0.211712
-0.628899 -0.184156 -0.184678
-0.708357 -0.278981 -0.279628
-0.769874 -0.236492 -0.237015
-0.50741 -0.257619 -0.106122
-0.599939 -0.211915 -0.091659
-0.676687 -0.355465 -0.144859
-0.758824 -0.276341 -0.120948
-0.644743 -0.319958 -0.320605
-0.708357 -0.278981 -0.279628
-0.824585 -0.399413 -0.400015
-0.871165 -0.342664 -0.343267
-0.590847 -0.431316 -0.166173
-0.676687 -0.355465 -0.144859
-0.773355 -0.563004 -0.202954
-0.851218 -0.45099 -0.174341
-0.708357 -0.278981 -0.279628
-0.769874 -0.236492 -0.237015
-0.871165 -0.342664 -0.343267
-0.914377 -0.285304 -0.285786
-0.676687 -0.355465 -0.144859
-0.758824 -0.276341 -0.120948
-0.851218 -0.45099 -0.174341
-0.922256 -0.336915 -0.143081
-0.413894 -0.299291 -0.117657
-0.50741 -0.257619 -0.106122
-0.590847 -0.431316 -0.166173
-0.676687 -0.355465 -0.144859
-0.353092 -0.353234 -0.000125414
-0.461514 -0.297513 -0.00183346
-0.528363 -0.528506 -0.0102274
-0.638895 -0.423107 -0.0100596
-0.50741 -0.257619 -0.106122
-0.599939 -0.211915 -0.091659
-0.676687 -0.355465 -0.144859
-0.758824 -0.276341 -0.120948
-0.461514 -0.297513 -0.00183346
-0.568471 -0.23554 -0.000109853
-0.638895 -0.423107 -0.0100596
-0.743298 -0.311296 -0.00581126
-0.590847 -0.431316 -0.166173
-0.676687 -0.355465 -0.144859
-0.773355 -0.563004 -0.202954
-0.851218 -0.45099 -0.174341
-0.528363 -0.528506 -0.0102274
-0.638895 -0.423107 -0.0100596
-0.706592 -0.706746 -0.000109779
-0.82107 -0.547675 -0.00298575
-0.676687 -0.355465 -0.144859
-0.758824 -0.276341 -0.120948
-0.851218 -0.45099 -0.174341
-0.922256 -0.336915 -0.143081
-0.638895 -0.423107 -0.0100596
-0.743298 -0.311296 -0.00581126
-0.82107 -0.547675 -0.00298575
-0.92326 -0.382507 -9.47318e-05
-0.353146 6.20341e-05 -0.354197
-0.461568 -0.00164601 -0.298476
-0.41396 -0.117279 -0.300183
-0.507477 -0.105743 -0.258511
-0.173775 -0.0144237 -0.174615
-0.353336 -0.0140959 -0.15287
-0.294051 -0.154798 -0.155356
-0.431646 -0.134065 -0.134623
-0.461568 -0.00164601 -0.298476
-0.568547 5.25152e-05 -0.236181
-0.507477 -0.105743 -0.258511
-0.600004 -0.0913437 -0.212532
-0.353336 -0.0140959 -0.15287
-0.536335 -0.00238908 -0.116164
-0.431646 -0.134065 -0.134623
-0.569856 -0.105842 -0.10621
-0.41396 -0.117279 -0.300183
-0.507477 -0.105743 -0.258511
-0.470952 -0.235545 -0.236192
-0.550261 -0.211065 -0.211712
-0.294051 -0.154798 -0.155356
-0.431646 -0.134065 -0.134623
-0.413894 -0.299291 -0.117657
-0.50741 -0.257619 -0.106122
-0.507477 -0.105743 -0.258511
-0.600004 -0.0913437 -0.212532
-0.550261 -0.211065 -0.211712
-0.628899 -0.184156 -0.184678
-0.431646 -0.134065 -0.134623
-0.569856 -0.105842 -0.10621
-0.50741 -0.257619 -0.106122
-0.599939 -0.211915 -0.091659
-0.173775 -0.0144237 -0.174615
-0.353336 -0.0140959 -0.15287
-0.294051 -0.154798 -0.155356
-0.431646 -0.134065 -0.134623
0.000277372 9.34662e-05 -0.000199065
-0.243518 -0.012534 -0.0128266
-0.173856 -0.17404 -0.014699
-0.353417 -0.152295 -0.0143712
-0.353336 -0.0140959 -0.15287
-0.536335 -0.00238908 -0.116164
-0.431646 -0.134065 -0.134623
-0.569856 -0.105842 -0.10621
-0.243518 -0.012534 -0.0128266
-0.499434 6.27081e-05 -0.000131533
-0.353417 -0.152295 -0.0143712
-0.536315 -0.115788 -0.00257471
-0.294051 -0.154798 -0.155356
-0.431646 -0.134065 -0.134623
-0.413894 -0.299291 -0.117657
-0.50741 -0.257619 -0.106122
-0.173856 -0.17404 -0.014699
-0.353417 -0.152295 -0.0143712
-0.353092 -0.353234 -0.000125414
-0.461514 -0.297513 -0.00183346
-0.431646 -0.134065 -0.134623
-0.569856 -0.105842 -0.10621
-0.50741 -0.257619 -0.106122
-0.599939 -0.211915 -0.091659
-0.353417 -0.152295 -0.0143712
-0.536315 -0.115788 -0.00257471
-0.461514 -0.297513 -0.00183346
-0.568471 -0.23554 -0.000109853
0.353241 -2.46571e-05 0.354154
0.410871 0.117636 0.285919
0.537107 -0.0282025 0.538019
0.596451 0.137234 0.402957
0.459681 -0.00427579 0.291689
0.503269 0.102374 0.243621
0.641342 -0.0301406 0.418392
0.677947 0.118454 0.329773
0.410871 0.117636 0.285919
0.471036 0.23558 0.236143
0.596451 0.137234 0.402957
0.660678 0.312144 0.312678
0.503269 0.102374 0.243621
0.54821 0.208357 0.208917
0.677947 0.118454 0.329773
0.717245 0.26959 0.270134
0.537107 -0.0282025 0.538019
0.596451 0.137234 0.402957
0.706825 -1.60694e-05 0.707685
0.757523 0.193301 0.520269
0.641342 -0.0301406 0.418392
0.677947 0.118454 0.329773
0.807589 -0.0161635 0.545072
0.8313 0.161685 0.422317
0.596451 0.137234 0.402957
0.660678 0.312144 0.312678
0.757523 0.193301 0.520269
0.816154 0.408131 0.408591
0.677947 0.118454 0.329773
0.717245 0.26959 0.270134
0.8313 0.161685 0.422317
0.859564 0.346621 0.347098
0.459681 -0.00427579 0.291689
0.503269 0.102374 0.243621
0.641342 -0.0301406 0.418392
0.677947 0.118454 0.329773
0.56863 -2.42969e-05 0.236139
0.598092 0.0930709 0.20631
0.753501 -0.0138418 0.304621
0.766221 0.108315 0.259293
0.503269 0.102374 0.243621
0.54821 0.208357 0.208917
0.677947 0.118454 0.329773
0.717245 0.26959 0.270134
0.598092 0.0930709 0.20631
0.628123 0.185052 0.185494
0.766221 0.108315 0.259293
0.780435 0.22943 0.229871
0.641342 -0.0301406 0.418392
0.677947 0.118454 0.329773
0.807589 -0.0161635 0.545072
0.8313 0.161685 0.422317
0.753501 -0.0138418 0.304621
0.766221 0.108315 0.259293
0.923475 -2.07992e-05 0.38307
0.917119 0.143649 0.323154
0.677947 0.118454 0.329773
0.717245 0.26959 0.270134
0.8313 0.161685 0.422317
0.859564 0.346621 0.347098
0.766221 0.108315 0.259293
0.780435 0.22943 0.229871
0.917119 0.143649 0.323154
0.91352 0.28683 0.287214
0.471036 0.23558 0.236143
0.410781 0.28511 0.117929
0.660678 0.312144 0.312678
0.596362 0.402166 0.137513
0.54821 0.208357 0.208917
0.503179 0.242813 0.102665
0.717245 0.26959 0.270134
0.677857 0.328975 0.118738
0.410781 0.28511 0.117929
0.353151 0.353272 6.39967e-05
0.596362 0.402166 0.137513
[...]
POINT_DATA 8192
SCALARS A_0 double 1
LOOKUP_TABLE default
1.00096 1.00043 1.0029 1.00009 0.999606 0.997387 0.999847 0.996091 1.00043 0.997146 1.00009 0.994638 0.997387 0.994504 0.996091 0.993689 1.0029 1.00009 1.00581 1.00004 0.999847 0.996091 0.999815 0.995403 1.00009 0.994638 1.00004 0.996091 0.996091 0.993689 0.995403 0.992273 0.999606 0.997387 0.999847 0.996091 0.998292 0.996628 0.996576 0.995843 0.997387 0.994504 0.996091 0.993689 0.996628 0.995664 0.995843 0.993869 0.999847 0.996091 0.999815 0.995403 0.996576 0.995843 0.995754 0.99279 0.996091 0.993689 0.995403 0.992273 0.995843 0.993869 0.99279 0.992176 0.997146 0.996256 0.994638 0.993562 0.994504 0.994492 0.993689 0.992586 0.996256 0.996753 0.993562 0.991785 0.994492 0.994393 0.992586 0.991502 0.994638 0.993562 0.996091 0.991724 0.993689 0.992586 0.992273 0.988199 0.993562 0.991785 0.991724 0.989014 0.992586 0.991502 0.988199 0.98937 0.994504 0.994492 0.993689 0.992586 0.995664 0.99593 0.993869 0.99307 0.994492 0.994393 0.992586 0.991502 0.99593 0.99463 0.99307 0.992247 0.993689 0.992586 0.992273 0.988199 0.993869 0.99307 0.992176 0.991093 0.992586 0.991502 0.988199 0.98937 0.99307 0.992247 0.991093 0.989449 0.998292 0.996628 0.996576 0.995843 0.996738 0.995731 0.994027 0.992818 0.996628 0.995664 0.995843 0.993869 0.995731 0.99593 0.992818 0.99307 0.996576 0.995843 0.995754 0.99279 0.994027 0.992818 0.986975 0.990579 0.995843 0.993869 0.99279 0.992176 0.992818 0.99307 0.990579 0.991093 0.996738 0.995731 0.994027 0.992818 0.996354 0.996499 0.994261 0.990849 0.995731 0.99593 0.992818 0.99307 0.996499 0.99463 0.990849 0.992247 0.994027 0.992818 0.986975 0.990579 0.994261 0.990849 0.990626 0.990741 0.992818 0.99307 0.990579 0.991093 0.990849 0.992247 0.990741 0.989449 1.00096 1.00043 0.999606 0.997387 0.999914 0.998699 0.998637 0.996282 1.00043 0.997146 0.997387 0.994504 0.998699 0.996256 0.996282 0.994492 0.999606 0.997387 0.998292 0.996628 0.998637 0.996282 0.996738 0.995731 0.997387 0.994504 0.996628 0.995664 0.996282 0.994492 0.995731 0.99593 0.999914 0.998699 0.998637 0.996282 0.998967 0.99848 0.997999 0.996313 0.998699 0.996256 0.996282 0.994492 0.99848 0.996753 0.996313 0.994393 0.998637 0.996282 0.996738 0.995731 0.997999 0.996313 0.996354 0.996499 0.996282 0.994492 0.995731 0.99593 0.996313 0.994393 0.996499 0.99463 1.0014 0.999593 1.00342 0.999566 0.999567 0.997689 0.999511 0.996636 0.999593 0.997473 0.999566 0.996517 0.997689 0.997281 0.996636 0.995324 1.00342 0.999566 1.00511 0.999353 0.999511 0.996636 0.999453 0.995631 0.999566 0.996517 0.999353 0.995564 0.996636 0.995324 0.995631 0.994038 0.999567 0.997689 0.999511 0.996636 0.9959 0.994762 0.995042 0.993045 0.997689 0.997281 0.996636 0.995324 0.994762 0.996056 0.993045 0.993835 0.999511 0.996636 0.999453 0.995631 0.995042 0.993045 0.993625 0.994052 0.996636 0.995324 0.995631 0.994038 0.993045 0.993835 0.994052 0.98913 0.997473 0.997254 0.996517 0.992105 0.997281 0.995907 0.995324 0.991726 0.997254 0.997784 0.992105 0.99365 0.995907 0.994286 0.991726 0.991496 0.996517 0.992105 0.995564 0.99156 0.995324 0.991726 0.994038 0.992376 0.992105 0.99365 0.99156 0.993393 0.991726 0.991496 0.992376 0.98646 0.997281 0.995907 0.995324 0.991726 0.996056 0.996042 0.993835 0.992536 0.995907 0.994286 0.991726 0.991496 0.996042 0.996574 0.992536 0.993121 0.995324 0.991726 0.994038 0.992376 0.993835 0.992536 0.98913 0.991501 0.991726 0.991496 0.992376 0.98646 0.992536 0.993121 0.991501 0.994332 0.9959 0.994762 0.995042 0.993045 0.995938 0.995182 0.99397 0.993479 0.994762 0.996056 0.993045 0.993835 0.995182 0.996042 0.993479 0.992536 0.995042 0.993045 0.993625 0.994052 0.99397 0.993479 0.993852 0.992977 0.993045 0.993835 0.994052 0.98913 0.993479 0.992536 0.992977 0.991501 0.995938 0.995182 0.99397 0.993479 0.996414 0.996591 0.992301 0.992359 0.995182 0.996042 0.993479 0.992536 0.996591 0.996574 0.992359 0.993121 0.99397 0.993479 0.993852 0.992977 0.992301 0.992359 0.989694 0.989876 0.993479 0.992536 0.992977 0.991501 0.992359 0.993121 0.989876 0.994332 1.0014 0.999593 0.999567 0.997689 0.999953 0.998319 0.998198 0.997472 0.999593 0.997473 0.997689 0.997281 0.998319 0.997254 0.997472 0.995907 0.999567 0.997689 0.9959 0.994762 0.998198 0.997472 0.995938 0.995182 0.997689 0.997281 0.994762 0.996056 0.997472 0.995907 0.995182 0.996042 0.999953 0.998319 0.998198 0.997472 0.998967 1.00094 0.99936 0.995973 0.998319 0.997254 0.997472 0.995907 1.00094 0.997784 0.995973 0.994286 0.998198 0.997472 0.995938 0.995182 0.99936 0.995973 0.996414 0.996591 0.997472 0.995907 0.995182 0.996042 0.995973 0.994286 0.996591 0.996574 1.00719 1.00796 1.00975 1.01359 1.00709 1.00832 1.01498 1.0139 1.00796 1.00623 1.01359 1.01234 1.00832 1.00646 1.0139 1.01014 1.00975 1.01359 1.0125 1.01643 1.01498 1.0139 1.01189 1.01184 1.01359 1.01234 1.01643 1.0109 1.0139 1.01014 1.01184 1.01264 1.00709 1.00832 1.01498 1.0139 1.00721 1.00775 1.0143 1.01442 1.00832 1.00646 1.0139 1.01014 1.00775 1.00753 1.01442 1.00783 1.01498 1.0139 1.01189 1.01184 1.0143 1.01442 1.00812 1.01544 1.0139 1.01014 1.01184 1.01264 1.01442 1.00783 1.01544 1.01035 1.00623 1.00444 1.01234 1.00797 1.00646 1.00562 1.01014 1.00906 1.00444 1.00199 1.00797 1.00239 1.00562 1.00267 1.00906 1.00761 1.01234 1.00797 1.0109 1.00994 1.01014 1.00906 1.01264 1.01358 1.00797 1.00239 1.00994 1.0062 1.00906 1.00761 1.01358 1.00606 1.00646 1.00562 1.01014 1.00906 1.00753 1.00783 1.00783 1.00733 1.00562 1.00267 1.00906 1.00761 1.00783 1.0047 1.00733 1.00849 1.01014 1.00906 1.01264 1.01358 1.00783 1.00733 1.01035 1.00948 1.00906 1.00761 1.01358 1.00606 1.00733 1.00849 1.00948 1.00764 1.00721 1.00775 1.0143 1.01442 1.00535 1.00513 1.0081 1.01072 1.00775 1.00753 1.01442 1.00783 1.00513 1.00783 1.01072 1.00733 1.0143 1.01442 1.00812 1.01544 1.0081 1.01072 1.01161 1.01273 1.01442 1.00783 1.01544 1.01035 1.01072 1.00733 1.01273 1.00948 1.00535 1.00513 1.0081 1.01072 1.00144 1.00285 1.00334 1.00403 1.00513 1.00783 1.01072 1.00733 1.00285 1.0047 1.00403 1.00849 1.0081 1.01072 1.01161 1.01273 1.00334 1.00403 1.00589 1.00667 1.01072 1.00733 1.01273 1.00948 1.00403 1.00849 1.00667 1.00764 1.00719 1.00796 1.00709 1.00832 0.999685 1.00164 1.00275 1.00265 1.00796 1.00623 1.00832 1.00646 1.00164 1.00444 1.00265 1.00562 1.00709 1.00832 1.00721 1.00775 1.00275 1.00265 1.00535 1.00513 1.00832 1.00646 1.00775 1.00753 1.00265 1.00562 1.00513 1.00783 0.999685 1.00164 1.00275 1.00265 0.998967 0.997186 0.99845 1.00109 1.00164 1.00444 1.00265 1.00562 0.997186 1.00199 1.00109 1.00267 1.00275 1.00265 1.00535 1.00513 0.99845 1.00109 1.00144 1.00285 1.00265 1.00562 1.00513 1.00783 1.00109 1.00267 1.00285 1.0047 1.00856 1.00805 1.01399 1.0136 1.00734 1.00869 1.01029 1.00804 1.00805 1.00912 1.0136 1.01087 1.00869 1.01167 1.00804 1.01506 1.01399 1.0136 1.022 1.01836 1.01029 1.00804 1.02266 1.02097 1.0136 1.01087 1.01836 1.00995 1.00804 1.01506 1.02097 1.01187 1.00734 1.00869 1.01029 1.00804 1.00754 1.00776 1.0101 1.01151 1.00869 1.01167 1.00804 1.01506 1.00776 1.00872 1.01151 1.01542 1.01029 1.00804 1.02266 1.02097 1.0101 1.01151 1.0152 1.01722 1.00804 1.01506 1.02097 1.01187 1.01151 1.01542 1.01722 1.01855 1.00912 1.00549 1.01087 1.00835 1.01167 1.00624 1.01506 1.00623 1.00549 1.00126 1.00835 1.0036 1.00624 1.00249 1.00623 1.00727 1.01087 1.00835 1.00995 1.01601 1.01506 1.00623 1.01187 1.01301 1.00835 1.0036 1.01601 1.00369 1.00623 1.00727 1.01301 1.00698 1.01167 1.00624 1.01506 1.00623 1.00872 1.00663 1.01542 1.01062 1.00624 1.00249 1.00623 1.00727 1.00663 1.00451 1.01062 1.00776 1.01506 1.00623 1.01187 1.01301 1.01542 1.01062 1.01855 1.01776 1.00623 1.00727 1.01301 1.00698 1.01062 1.00776 1.01776 1.0149 1.00754 1.00776 1.0101 1.01151 1.00468 1.0056 1.00895 1.00749 1.00776 1.00872 1.01151 1.01542 1.0056 1.00663 1.00749 1.01062 1.0101 1.01151 1.0152 1.01722 1.00895 1.00749 1.003 1.01668 1.01151 1.01542 1.01722 1.01855 1.00749 1.01062 1.01668 1.01776 1.00468 1.0056 1.00895 1.00749 1.00059 1.0022 1.00289 1.00575 1.0056 1.00663 1.00749 1.01062 1.0022 1.00451 1.00575 1.00776 1.00895 1.00749 1.003 1.01668 1.00289 1.00575 1.00405 1.00433 1.00749 1.01062 1.01668 1.01776 1.00575 1.00776 1.00433 1.0149 1.00856 1.00805 1.00734 1.00869 0.999977 1.00191 1.00115 1.00185 1.00805 1.00912 1.00869 1.01167 1.00191 1.00549 1.00185 1.00624 1.00734 1.00869 1.00754 1.00776 1.00115 1.00185 1.00468 1.0056 1.00869 1.01167 1.00776 1.00872 1.00185 1.00624 1.0056 1.00663 0.999977 1.00191 1.00115 1.00185 0.998967 0.99818 0.999357 1.00013 1.00191 1.00549 1.00185 1.00624 0.99818 1.00126 1.00013 1.00249 1.00115 1.00185 1.00468 1.0056 0.999357 1.00013 1.00059 1.0022 1.00185 1.00624 1.0056 1.00663 1.00013 1.00249 1.0022 1.00451 1.00151 0.99978 1.00261 0.999544 0.999574 0.997419 0.999263 0.995922 0.99978 0.99903 0.999544 0.996986 0.997419 0.996682 0.995922 0.995441 1.00261 0.999544 1.00539 0.999852 0.999263 0.995922 0.999411 0.997482 0.999544 0.996986 0.999852 0.996106 0.995922 0.995441 0.997482 0.997108 0.999574 0.997419 0.999263 0.995922 0.996972 0.995668 0.995799 0.992993 0.997419 0.996682 0.995922 0.995441 0.995668 0.995364 0.992993 0.992368 0.999263 0.995922 0.999411 0.997482 0.995799 0.992993 0.993607 0.990406 0.995922 0.995441 0.997482 0.997108 0.992993 0.992368 0.990406 0.989954 0.99903 0.995979 0.996986 0.993504 0.996682 0.996046 0.995441 0.992994 0.995979 0.996035 0.993504 0.990563 0.996046 0.995953 0.992994 0.991704 0.996986 0.993504 0.996106 0.991392 0.995441 0.992994 0.997108 0.99557 0.993504 0.990563 0.991392 0.990095 0.992994 0.991704 0.99557 0.991167 0.996682 0.996046 0.995441 0.992994 0.995364 0.995146 0.992368 0.991321 0.996046 0.995953 0.992994 0.991704 0.995146 0.99628 0.991321 0.990721 0.995441 0.992994 0.997108 0.99557 0.992368 0.991321 0.989954 0.986943 0.992994 0.991704 0.99557 0.991167 0.991321 0.990721 0.986943 0.993116 0.996972 0.995668 0.995799 0.992993 0.995205 0.99456 0.993076 0.990992 0.995668 0.995364 0.992993 0.992368 0.99456 0.995146 0.990992 0.991321 0.995799 0.992993 0.993607 0.990406 0.993076 0.990992 0.989352 0.988915 0.992993 0.992368 0.990406 0.989954 0.990992 0.991321 0.988915 0.986943 0.995205 0.99456 0.993076 0.990992 0.995105 0.995365 0.992711 0.992414 0.99456 0.995146 0.990992 0.991321 0.995365 0.99628 0.992414 0.990721 0.993076 0.990992 0.989352 0.988915 0.992711 0.992414 0.991102 0.987862 0.990992 0.991321 0.988915 0.986943 0.992414 0.990721 0.987862 0.993116 1.00151 0.99978 0.999574 0.997419 0.998909 0.998603 0.997908 0.996754 0.99978 0.99903 0.997419 0.996682 0.998603 0.995979 0.996754 0.996046 0.999574 0.997419 0.996972 0.995668 0.997908 0.996754 0.995205 0.99456 0.997419 0.996682 0.995668 0.995364 0.996754 0.996046 0.99456 0.995146 0.998909 0.998603 0.997908 0.996754 0.998967 0.999243 0.998328 0.996958 0.998603 0.995979 0.996754 0.996046 0.999243 0.996035 0.996958 0.995953 0.997908 0.996754 0.995205 0.99456 0.998328 0.996958 0.995105 0.995365 0.996754 0.996046 0.99456 0.995146 0.996958 0.995953 0.995365 0.99628 0.997179 0.997202 0.993958 0.994403 0.995938 0.995917 0.99282 0.994622 0.997202 0.997389 0.994403 0.994344 0.995917 0.996017 0.994622 0.994802 0.993958 0.994403 0.987991 0.994756 0.99282 0.994622 0.989641 0.992273 0.994403 0.994344 0.994756 0.995493 0.994622 0.994802 0.992273 0.996573 0.995938 0.995917 0.99282 0.994622 0.996875 0.995966 0.992466 0.995155 0.995917 0.996017 0.994622 0.994802 0.995966 0.995512 0.995155 0.994064 0.99282 0.994622 0.989641 0.992273 0.992466 0.995155 0.986654 0.994158 0.994622 0.994802 0.992273 0.996573 0.995155 0.994064 0.994158 0.994329 0.997389 0.99938 0.994344 1.00086 0.996017 0.997274 0.994802 0.998293 0.99938 1.00063 1.00086 1.00383 0.997274 0.999016 0.998293 1.00081 0.994344 1.00086 0.995493 1.00044 0.994802 0.998293 0.996573 0.996464 1.00086 1.00383 1.00044 1.00526 0.998293 1.00081 0.996464 0.999959 0.996017 0.997274 0.994802 0.998293 0.995512 0.995173 0.994064 0.993706 0.997274 0.999016 0.998293 1.00081 0.995173 0.995314 0.993706 0.99546 0.994802 0.998293 0.996573 0.996464 0.994064 0.993706 0.994329 0.990465 0.998293 1.00081 0.996464 0.999959 0.993706 0.99546 0.990465 0.99346 0.996875 0.995966 0.992466 0.995155 0.997167 0.996381 0.992015 0.992016 0.995966 0.995512 0.995155 0.994064 0.996381 0.995173 0.992016 0.993706 0.992466 0.995155 0.986654 0.994158 0.992015 0.992016 0.991308 0.990928 0.995155 0.994064 0.994158 0.994329 0.992016 0.993706 0.990928 0.990465 0.997167 0.996381 0.992015 0.992016 0.997122 0.996931 0.994562 0.992864 0.996381 0.995173 0.992016 0.993706 0.996931 0.995314 0.992864 0.99546 0.992015 0.992016 0.991308 0.990928 0.994562 0.992864 0.990315 0.989866 0.992016 0.993706 0.990928 0.990465 0.992864 0.99546 0.989866 0.99346 0.997179 0.997202 0.995938 0.995917 0.999839 0.999252 0.999037 0.998152 0.997202 0.997389 0.995917 0.996017 0.999252 0.99938 0.998152 0.997274 0.995938 0.995917 0.996875 0.995966 0.999037 0.998152 0.997167 0.996381 0.995917 0.996017 0.995966 0.995512 0.998152 0.997274 0.996381 0.995173 0.999839 0.999252 0.999037 0.998152 0.998967 1.00074 1.00104 0.999597 0.999252 0.99938 0.998152 0.997274 1.00074 1.00063 0.999597 0.999016 0.999037 0.998152 0.997167 0.996381 1.00104 0.999597 0.997122 0.996931 0.998152 0.997274 0.996381 0.995173 0.999597 0.999016 0.996931 0.995314 0.997179 0.995938 0.993958 0.99282 0.995516 0.994551 0.993859 0.989868 0.995938 0.996875 0.99282 0.992466 0.994551 0.995785 0.989868 0.992668 0.993958 0.99282 0.987991 0.989641 0.993859 0.989868 0.994916 0.99388 0.99282 0.992466 0.989641 0.986654 0.989868 0.992668 0.99388 0.990646 0.995516 0.994551 0.993859 0.989868 0.997114 0.996153 0.996331 0.994489 0.994551 0.995785 0.989868 0.992668 0.996153 0.995942 0.994489 0.992121 0.993859 0.989868 0.994916 0.99388 0.996331 0.994489 0.993901 0.992904 0.989868 0.992668 0.99388 0.990646 0.994489 0.992121 0.992904 0.991655 0.996875 0.997167 0.992466 0.992015 0.995785 0.99508 0.992668 0.996008 0.997167 0.997122 0.992015 0.994562 0.99508 0.997042 0.996008 0.994005 0.992466 0.992015 0.986654 0.991308 0.992668 0.996008 0.990646 0.993471 0.992015 0.994562 0.991308 0.990315 0.996008 0.994005 0.993471 0.992288 0.995785 0.99508 0.992668 0.996008 0.995942 0.996148 0.992121 0.993094 0.99508 0.997042 0.996008 0.994005 0.996148 0.995682 0.993094 0.995424 0.992668 0.996008 0.990646 0.993471 0.992121 0.993094 0.991655 0.991743 0.996008 0.994005 0.993471 0.992288 0.993094 0.995424 0.991743 0.990557 0.997114 0.996153 0.996331 0.994489 0.999064 0.997584 0.999585 0.996584 0.996153 0.995942 0.994489 0.992121 0.997584 0.996148 0.996584 0.993094 0.996331 0.994489 0.993901 0.992904 0.999585 0.996584 1.00052 0.994844 0.994489 0.992121 0.992904 0.991655 0.996584 0.993094 0.994844 0.991743 0.999064 0.997584 0.999585 0.996584 1.00144 0.998113 1.00334 0.998575 0.997584 0.996148 0.996584 0.993094 0.998113 0.995682 0.998575 0.995424 0.999585 0.996584 1.00052 0.994844 1.00334 0.998575 1.00589 0.998812 0.996584 0.993094 0.994844 0.991743 0.998575 0.995424 0.998812 0.990557 0.997179 0.995938 0.995516 0.994551 0.999839 0.999037 0.998268 0.997314 0.995938 0.996875 0.994551 0.995785 0.999037 0.997167 0.997314 0.99508 0.995516 0.994551 0.997114 0.996153 0.998268 0.997314 0.999064 0.997584 0.994551 0.995785 0.996153 0.995942 0.997314 0.99508 0.997584 0.996148 0.999839 0.999037 0.998268 0.997314 0.998967 1.00104 0.99845 0.99705 0.999037 0.997167 0.997314 0.99508 1.00104 0.997122 0.99705 0.997042 0.998268 0.997314 0.999064 0.997584 0.99845 0.99705 1.00144 0.998113 0.997314 0.99508 0.997584 0.996148 0.99705 0.997042 0.998113 0.995682 1.0014 0.999567 1.00342 0.999511 1.0005 0.998518 1.00075 0.997069 0.999567 0.9959 0.999511 0.995042 0.998518 0.996401 0.997069 0.994939 1.00342 0.999511 1.00511 0.999453 1.00075 0.997069 1.00072 0.997665 0.999511 0.995042 0.999453 0.993625 0.997069 0.994939 0.997665 0.997413 1.0005 0.998518 1.00075 0.997069 0.997747 0.996733 0.995136 0.994877 0.998518 0.996401 0.997069 0.994939 0.996733 0.99471 0.994877 0.99284 1.00075 0.997069 1.00072 0.997665 0.995136 0.994877 0.991432 0.994129 0.997069 0.994939 0.997665 0.997413 0.994877 0.99284 0.994129 0.993019 0.9959 0.995938 0.995042 0.99397 0.996401 0.997212 0.994939 0.992558 0.995938 0.996414 0.99397 0.992301 0.997212 0.996467 0.992558 0.993721 0.995042 0.99397 0.993625 0.993852 0.994939 0.992558 0.997413 0.988035 0.99397 0.992301 0.993852 0.989694 0.992558 0.993721 0.988035 0.992506 0.996401 0.997212 0.994939 0.992558 0.99471 0.995191 0.99284 0.990813 0.997212 0.996467 0.992558 0.993721 0.995191 0.996065 0.990813 0.993372 0.994939 0.992558 0.997413 0.988035 0.99284 0.990813 0.993019 0.992687 0.992558 0.993721 0.988035 0.992506 0.990813 0.993372 0.992687 0.986516 0.997747 0.996733 0.995136 0.994877 0.996782 0.994892 0.993842 0.991707 0.996733 0.99471 0.994877 0.99284 0.994892 0.995191 0.991707 0.990813 0.995136 0.994877 0.991432 0.994129 0.993842 0.991707 0.995908 0.991798 0.994877 0.99284 0.994129 0.993019 0.991707 0.990813 0.991798 0.992687 0.996782 0.994892 0.993842 0.991707 0.996035 0.99604 0.990563 0.993773 0.994892 0.995191 0.991707 0.990813 0.99604 0.996065 0.993773 0.993372 0.993842 0.991707 0.995908 0.991798 0.990563 0.993773 0.990095 0.990851 0.991707 0.990813 0.991798 0.992687 0.993773 0.993372 0.990851 0.986516 1.0014 0.999567 1.0005 0.998518 0.999953 0.998198 0.999748 0.998001 0.999567 0.9959 0.998518 0.996401 0.998198 0.995938 0.998001 0.997212 1.0005 0.998518 0.997747 0.996733 0.999748 0.998001 0.996782 0.994892 0.998518 0.996401 0.996733 0.99471 0.998001 0.997212 0.994892 0.995191 0.999953 0.998198 0.999748 0.998001 0.998967 0.99936 0.999243 0.998906 0.998198 0.995938 0.998001 0.997212 0.99936 0.996414 0.998906 0.996467 0.999748 0.998001 0.996782 0.994892 0.999243 0.998906 0.996035 0.99604 0.998001 0.997212 0.994892 0.995191 0.998906 0.996467 0.99604 0.996065 1.00063 0.999686 1.00383 1.00105 0.999016 0.997382 1.00081 0.998591 0.999686 0.997488 1.00105 0.996935 0.997382 0.994529 0.998591 0.994625 1.00383 1.00105 1.00526 1.00048 1.00081 0.998591 0.999959 0.996898 1.00105 0.996935 1.00048 0.995329 0.998591 0.994625 0.996898 0.99219 0.999016 0.997382 1.00081 0.998591 0.995314 0.994591 0.99546 0.99415 0.997382 0.994529 0.998591 0.994625 0.994591 0.994437 0.99415 0.993975 1.00081 0.998591 0.999959 0.996898 0.99546 0.99415 0.99346 0.991464 0.998591 0.994625 0.996898 0.99219 0.99415 0.993975 0.991464 0.993939 0.997784 0.998564 0.99365 0.992619 0.996775 0.996232 0.994974 0.99407 0.998564 0.995066 0.992619 0.992707 0.996232 0.997266 0.99407 0.995082 0.99365 0.992619 0.993393 0.990699 0.994974 0.99407 0.99257 0.995971 0.992619 0.992707 0.990699 0.988156 0.99407 0.995082 0.995971 0.995798 0.996775 0.996232 0.994974 0.99407 0.997488 0.994529 0.996935 0.994625 0.996232 0.997266 0.99407 0.995082 0.994529 0.994437 0.994625 0.993975 0.994974 0.99407 0.99257 0.995971 0.996935 0.994625 0.995329 0.99219 0.99407 0.995082 0.995971 0.995798 0.994625 0.993975 0.99219 0.993939 0.997122 0.996931 0.994562 0.992864 0.99766 0.996783 0.992421 0.994428 0.996931 0.995314 0.992864 0.99546 0.996783 0.994591 0.994428 0.99415 0.994562 0.992864 0.990315 0.989866 0.992421 0.994428 0.991655 0.991443 0.992864 0.99546 0.989866 0.99346 0.994428 0.99415 0.991443 0.991464 0.99766 0.996783 0.992421 0.994428 0.995066 0.997266 0.992707 0.995082 0.996783 0.994591 0.994428 0.99415 0.997266 0.994437 0.995082 0.993975 0.992421 0.994428 0.991655 0.991443 0.992707 0.995082 0.988156 0.995798 0.994428 0.99415 0.991443 0.991464 0.995082 0.993975 0.995798 0.993939 0.998967 1.00074 1.00104 0.999597 1.00094 0.999356 1.00046 0.999108 1.00074 1.00063 0.999597 0.999016 0.999356 0.999686 0.999108 0.997382 1.00104 0.999597 0.997122 0.996931 1.00046 0.999108 0.99766 0.996783 0.999597 0.999016 0.996931 0.995314 0.999108 0.997382 0.996783 0.994591 1.00094 0.999356 1.00046 0.999108 0.997784 0.996775 0.998564 0.996232 0.999356 0.999686 0.999108 0.997382 0.996775 0.997488 0.996232 0.994529 1.00046 0.999108 0.99766 0.996783 0.998564 0.996232 0.995066 0.997266 0.999108 0.997382 0.996783 0.994591 0.996232 0.994529 0.997266 0.994437 0.997023 0.995602 0.997365 0.993