# vtk DataFile Version 3.0
#This file was generated by the deal.II library on 2025/4/16 at 17:54:05
ASCII
DATASET UNSTRUCTURED_GRID

POINTS 8192 double
-0.353553 0 -0.353553
-0.461975 -0.00170805 -0.297832
-0.528825 -0.010102 -0.528825
-0.639357 -0.00993414 -0.423426
-0.414368 -0.117341 -0.299539
-0.507884 -0.105805 -0.257867
-0.591321 -0.165856 -0.431564
-0.677161 -0.144542 -0.355712
-0.461975 -0.00170805 -0.297832
-0.569036 0 -0.235702
-0.639357 -0.00993414 -0.423426
-0.743863 -0.0057014 -0.311458
-0.507884 -0.105805 -0.257867
-0.600493 -0.0913962 -0.212053
-0.677161 -0.144542 -0.355712
-0.759377 -0.120685 -0.276479
-0.528825 -0.010102 -0.528825
-0.639357 -0.00993414 -0.423426
-0.707107 0 -0.707107
-0.821585 -0.00287597 -0.548035
-0.591321 -0.165856 -0.431564
-0.677161 -0.144542 -0.355712
-0.773861 -0.202678 -0.563267
-0.851724 -0.174066 -0.451253
-0.639357 -0.00993414 -0.423426
-0.743863 -0.0057014 -0.311458
-0.821585 -0.00287597 -0.548035
-0.92388 0 -0.382683
-0.677161 -0.144542 -0.355712
-0.759377 -0.120685 -0.276479
-0.851724 -0.174066 -0.451253
-0.922841 -0.142853 -0.337062
-0.414368 -0.117341 -0.299539
-0.507884 -0.105805 -0.257867
-0.591321 -0.165856 -0.431564
-0.677161 -0.144542 -0.355712
-0.471405 -0.235702 -0.235702
-0.550714 -0.211222 -0.211222
-0.645195 -0.320116 -0.320116
-0.708809 -0.279139 -0.279139
-0.507884 -0.105805 -0.257867
-0.600493 -0.0913962 -0.212053
-0.677161 -0.144542 -0.355712
-0.759377 -0.120685 -0.276479
-0.550714 -0.211222 -0.211222
-0.629412 -0.184291 -0.184291
-0.708809 -0.279139 -0.279139
-0.770387 -0.236627 -0.236627
-0.591321 -0.165856 -0.431564
-0.677161 -0.144542 -0.355712
-0.773861 -0.202678 -0.563267
-0.851724 -0.174066 -0.451253
-0.645195 -0.320116 -0.320116
-0.708809 -0.279139 -0.279139
-0.825042 -0.399565 -0.399565
-0.871622 -0.342817 -0.342817
-0.677161 -0.144542 -0.355712
-0.759377 -0.120685 -0.276479
-0.851724 -0.174066 -0.451253
-0.922841 -0.142853 -0.337062
-0.708809 -0.279139 -0.279139
-0.770387 -0.236627 -0.236627
-0.871622 -0.342817 -0.342817
-0.914903 -0.285441 -0.285441
-0.569036 0 -0.235702
-0.536881 -0.00244317 -0.115851
-0.743863 -0.0057014 -0.311458
-0.749363 -0.0104556 -0.158964
-0.600493 -0.0913962 -0.212053
-0.570402 -0.105896 -0.105896
-0.759377 -0.120685 -0.276479
-0.757595 -0.142384 -0.142384
-0.536881 -0.00244317 -0.115851
-0.5 0 0
-0.749363 -0.0104556 -0.158964
-0.745684 -0.00994129 -0.00994129
-0.570402 -0.105896 -0.105896
-0.536881 -0.115851 -0.00244317
-0.757595 -0.142384 -0.142384
-0.749363 -0.158964 -0.0104556
-0.743863 -0.0057014 -0.311458
-0.749363 -0.0104556 -0.158964
-0.92388 0 -0.382683
-0.969401 -0.00332978 -0.19064
-0.759377 -0.120685 -0.276479
-0.757595 -0.142384 -0.142384
-0.922841 -0.142853 -0.337062
-0.95124 -0.169911 -0.169911
-0.749363 -0.0104556 -0.158964
-0.745684 -0.00994129 -0.00994129
-0.969401 -0.00332978 -0.19064
-1 0 0
-0.757595 -0.142384 -0.142384
-0.749363 -0.158964 -0.0104556
-0.95124 -0.169911 -0.169911
-0.969401 -0.19064 -0.00332978
-0.600493 -0.0913962 -0.212053
-0.570402 -0.105896 -0.105896
-0.759377 -0.120685 -0.276479
-0.757595 -0.142384 -0.142384
-0.629412 -0.184291 -0.184291
-0.600493 -0.212053 -0.0913962
-0.770387 -0.236627 -0.236627
-0.759377 -0.276479 -0.120685
-0.570402 -0.105896 -0.105896
-0.536881 -0.115851 -0.00244317
-0.757595 -0.142384 -0.142384
-0.749363 -0.158964 -0.0104556
-0.600493 -0.212053 -0.0913962
-0.569036 -0.235702 0
-0.759377 -0.276479 -0.120685
-0.743863 -0.311458 -0.0057014
-0.759377 -0.120685 -0.276479
-0.757595 -0.142384 -0.142384
-0.922841 -0.142853 -0.337062
-0.95124 -0.169911 -0.169911
-0.770387 -0.236627 -0.236627
-0.759377 -0.276479 -0.120685
-0.914903 -0.285441 -0.285441
-0.922841 -0.337062 -0.142853
-0.757595 -0.142384 -0.142384
-0.749363 -0.158964 -0.0104556
-0.95124 -0.169911 -0.169911
-0.969401 -0.19064 -0.00332978
-0.759377 -0.276479 -0.120685
-0.743863 -0.311458 -0.0057014
-0.922841 -0.337062 -0.142853
-0.92388 -0.382683 0
-0.471405 -0.235702 -0.235702
-0.550714 -0.211222 -0.211222
-0.645195 -0.320116 -0.320116
-0.708809 -0.279139 -0.279139
-0.414368 -0.299539 -0.117341
-0.507884 -0.257867 -0.105805
-0.591321 -0.431564 -0.165856
-0.677161 -0.355712 -0.144542
-0.550714 -0.211222 -0.211222
-0.629412 -0.184291 -0.184291
-0.708809 -0.279139 -0.279139
-0.770387 -0.236627 -0.236627
-0.507884 -0.257867 -0.105805
-0.600493 -0.212053 -0.0913962
-0.677161 -0.355712 -0.144542
-0.759377 -0.276479 -0.120685
-0.645195 -0.320116 -0.320116
-0.708809 -0.279139 -0.279139
-0.825042 -0.399565 -0.399565
-0.871622 -0.342817 -0.342817
-0.591321 -0.431564 -0.165856
-0.677161 -0.355712 -0.144542
-0.773861 -0.563267 -0.202678
-0.851724 -0.451253 -0.174066
-0.708809 -0.279139 -0.279139
-0.770387 -0.236627 -0.236627
-0.871622 -0.342817 -0.342817
-0.914903 -0.285441 -0.285441
-0.677161 -0.355712 -0.144542
-0.759377 -0.276479 -0.120685
-0.851724 -0.451253 -0.174066
-0.922841 -0.337062 -0.142853
-0.414368 -0.299539 -0.117341
-0.507884 -0.257867 -0.105805
-0.591321 -0.431564 -0.165856
-0.677161 -0.355712 -0.144542
-0.353553 -0.353553 0
-0.461975 -0.297832 -0.00170805
-0.528825 -0.528825 -0.010102
-0.639357 -0.423426 -0.00993414
-0.507884 -0.257867 -0.105805
-0.600493 -0.212053 -0.0913962
-0.677161 -0.355712 -0.144542
-0.759377 -0.276479 -0.120685
-0.461975 -0.297832 -0.00170805
-0.569036 -0.235702 0
-0.639357 -0.423426 -0.00993414
-0.743863 -0.311458 -0.0057014
-0.591321 -0.431564 -0.165856
-0.677161 -0.355712 -0.144542
-0.773861 -0.563267 -0.202678
-0.851724 -0.451253 -0.174066
-0.528825 -0.528825 -0.010102
-0.639357 -0.423426 -0.00993414
-0.707107 -0.707107 0
-0.821585 -0.548035 -0.00287597
-0.677161 -0.355712 -0.144542
-0.759377 -0.276479 -0.120685
-0.851724 -0.451253 -0.174066
-0.922841 -0.337062 -0.142853
-0.639357 -0.423426 -0.00993414
-0.743863 -0.311458 -0.0057014
-0.821585 -0.548035 -0.00287597
-0.92388 -0.382683 0
-0.353553 0 -0.353553
-0.461975 -0.00170805 -0.297832
-0.414368 -0.117341 -0.299539
-0.507884 -0.105805 -0.257867
-0.174134 -0.0144999 -0.174134
-0.353695 -0.0141721 -0.152389
-0.294409 -0.154874 -0.154874
-0.432005 -0.134141 -0.134141
-0.461975 -0.00170805 -0.297832
-0.569036 0 -0.235702
-0.507884 -0.105805 -0.257867
-0.600493 -0.0913962 -0.212053
-0.353695 -0.0141721 -0.152389
-0.536881 -0.00244317 -0.115851
-0.432005 -0.134141 -0.134141
-0.570402 -0.105896 -0.105896
-0.414368 -0.117341 -0.299539
-0.507884 -0.105805 -0.257867
-0.471405 -0.235702 -0.235702
-0.550714 -0.211222 -0.211222
-0.294409 -0.154874 -0.154874
-0.432005 -0.134141 -0.134141
-0.414368 -0.299539 -0.117341
-0.507884 -0.257867 -0.105805
-0.507884 -0.105805 -0.257867
-0.600493 -0.0913962 -0.212053
-0.550714 -0.211222 -0.211222
-0.629412 -0.184291 -0.184291
-0.432005 -0.134141 -0.134141
-0.570402 -0.105896 -0.105896
-0.507884 -0.257867 -0.105805
-0.600493 -0.212053 -0.0913962
-0.174134 -0.0144999 -0.174134
-0.353695 -0.0141721 -0.152389
-0.294409 -0.154874 -0.154874
-0.432005 -0.134141 -0.134141
0 0 0
-0.243796 -0.0126275 -0.0126275
-0.174134 -0.174134 -0.0144999
-0.353695 -0.152389 -0.0141721
-0.353695 -0.0141721 -0.152389
-0.536881 -0.00244317 -0.115851
-0.432005 -0.134141 -0.134141
-0.570402 -0.105896 -0.105896
-0.243796 -0.0126275 -0.0126275
-0.5 0 0
-0.353695 -0.152389 -0.0141721
-0.536881 -0.115851 -0.00244317
-0.294409 -0.154874 -0.154874
-0.432005 -0.134141 -0.134141
-0.414368 -0.299539 -0.117341
-0.507884 -0.257867 -0.105805
-0.174134 -0.174134 -0.0144999
-0.353695 -0.152389 -0.0141721
-0.353553 -0.353553 0
-0.461975 -0.297832 -0.00170805
-0.432005 -0.134141 -0.134141
-0.570402 -0.105896 -0.105896
-0.507884 -0.257867 -0.105805
-0.600493 -0.212053 -0.0913962
-0.353695 -0.152389 -0.0141721
-0.536881 -0.115851 -0.00244317
-0.461975 -0.297832 -0.00170805
-0.569036 -0.235702 0
0.353553 0 0.353553
0.411183 0.117661 0.285319
0.537419 -0.0281778 0.537419
0.596763 0.137258 0.402357
0.459993 -0.00425113 0.291088
0.503581 0.102398 0.24302
0.641654 -0.0301159 0.417791
0.678259 0.118479 0.329173
0.411183 0.117661 0.285319
0.471405 0.235702 0.235702
0.596763 0.137258 0.402357
0.661047 0.312266 0.312237
0.503581 0.102398 0.24302
0.548579 0.208479 0.208476
0.678259 0.118479 0.329173
0.717613 0.269712 0.269694
0.537419 -0.0281778 0.537419
0.596763 0.137258 0.402357
0.707107 0 0.707107
0.757805 0.193318 0.51969
0.641654 -0.0301159 0.417791
0.678259 0.118479 0.329173
0.807871 -0.0161475 0.544494
0.831582 0.161701 0.421738
0.596763 0.137258 0.402357
0.661047 0.312266 0.312237
0.757805 0.193318 0.51969
0.816522 0.408247 0.4082
0.678259 0.118479 0.329173
0.717613 0.269712 0.269694
0.831582 0.161701 0.421738
0.859931 0.346736 0.346707
0.459993 -0.00425113 0.291088
0.503581 0.102398 0.24302
0.641654 -0.0301159 0.417791
0.678259 0.118479 0.329173
0.569036 0 0.235702
0.598498 0.0930952 0.205874
0.753907 -0.0138175 0.304184
0.766627 0.108339 0.258856
0.503581 0.102398 0.24302
0.548579 0.208479 0.208476
0.678259 0.118479 0.329173
0.717613 0.269712 0.269694
0.598498 0.0930952 0.205874
0.62856 0.185159 0.185154
0.766627 0.108339 0.258856
0.780872 0.229538 0.229531
0.641654 -0.0301159 0.417791
0.678259 0.118479 0.329173
0.807871 -0.0161475 0.544494
0.831582 0.161701 0.421738
0.753907 -0.0138175 0.304184
0.766627 0.108339 0.258856
0.92388 0 0.382683
0.917524 0.14367 0.322767
0.678259 0.118479 0.329173
0.717613 0.269712 0.269694
0.831582 0.161701 0.421738
0.859931 0.346736 0.346707
0.766627 0.108339 0.258856
0.780872 0.229538 0.229531
0.917524 0.14367 0.322767
0.913968 0.286938 0.28693
0.471405 0.235702 0.235702
0.411183 0.285319 0.117661
0.661047 0.312266 0.312237
0.596764 0.402375 0.137246
0.548579 0.208479 0.208476
0.503581 0.243022 0.102397
0.717613 0.269712 0.269694
0.678259 0.329184 0.11847
0.411183 0.285319 0.117661
0.353553 0.353553 0
0.596764 0.402375 0.137246
0.537419 0.537419 -0.0281778
0.503581 0.243022 0.102397
0.459993 0.291088 -0.00425113
0.678259 0.329184 0.11847
0.641654 0.417791 -0.0301159
0.661047 0.312266 0.312237
0.596764 0.402375 0.137246
0.816522 0.408247 0.4082
0.757807 0.519722 0.193298
0.717613 0.269712 0.269694
[...]
POINT_DATA 8192
SCALARS A_0 double 1
LOOKUP_TABLE default
1.00161 0.999599 1.00308 0.99941 0.99993 0.997741 0.999966 0.996208 0.999599 0.997715 0.99941 0.994536 0.997741 0.995344 0.996208 0.99485 1.00308 0.99941 1.00629 0.999464 0.999966 0.996208 0.999938 0.995646 0.99941 0.994536 0.999464 0.996334 0.996208 0.99485 0.995646 0.992877 0.99993 0.997741 0.999966 0.996208 0.997786 0.99716 0.995919 0.996757 0.997741 0.995344 0.996208 0.99485 0.99716 0.996026 0.996757 0.993771 0.999966 0.996208 0.999938 0.995646 0.995919 0.996757 0.995442 0.992746 0.996208 0.99485 0.995646 0.992877 0.996757 0.993771 0.992746 0.992159 0.997715 0.996619 0.994536 0.993923 0.995344 0.995373 0.99485 0.993927 0.996619 0.996738 0.993923 0.992431 0.995373 0.99493 0.993927 0.993037 0.994536 0.993923 0.996334 0.991549 0.99485 0.993927 0.992877 0.988245 0.993923 0.992431 0.991549 0.988802 0.993927 0.993037 0.988245 0.989728 0.995344 0.995373 0.99485 0.993927 0.996026 0.996173 0.993771 0.993013 0.995373 0.99493 0.993927 0.993037 0.996173 0.993999 0.993013 0.992155 0.99485 0.993927 0.992877 0.988245 0.993771 0.993013 0.992159 0.990605 0.993927 0.993037 0.988245 0.989728 0.993013 0.992155 0.990605 0.988424 0.997786 0.99716 0.995919 0.996757 0.996853 0.995698 0.994772 0.993658 0.99716 0.996026 0.996757 0.993771 0.995698 0.996173 0.993658 0.993013 0.995919 0.996757 0.995442 0.992746 0.994772 0.993658 0.986306 0.990812 0.996757 0.993771 0.992746 0.992159 0.993658 0.993013 0.990812 0.990605 0.996853 0.995698 0.994772 0.993658 0.99609 0.997122 0.995049 0.991503 0.995698 0.996173 0.993658 0.993013 0.997122 0.993999 0.991503 0.992155 0.994772 0.993658 0.986306 0.990812 0.995049 0.991503 0.990315 0.991161 0.993658 0.993013 0.990812 0.990605 0.991503 0.992155 0.991161 0.988424 1.00161 0.999599 0.99993 0.997741 1.00048 0.998999 0.999072 0.997244 0.999599 0.997715 0.997741 0.995344 0.998999 0.996619 0.997244 0.995373 0.99993 0.997741 0.997786 0.99716 0.999072 0.997244 0.996853 0.995698 0.997741 0.995344 0.99716 0.996026 0.997244 0.995373 0.995698 0.996173 1.00048 0.998999 0.999072 0.997244 1 0.999481 0.998812 0.997383 0.998999 0.996619 0.997244 0.995373 0.999481 0.996738 0.997383 0.99493 0.999072 0.997244 0.996853 0.995698 0.998812 0.997383 0.99609 0.997122 0.997244 0.995373 0.995698 0.996173 0.997383 0.99493 0.997122 0.993999 1.0019 0.999771 1.0033 0.999653 0.999508 0.99799 0.999322 0.99702 0.999771 0.997722 0.999653 0.996827 0.99799 0.997796 0.99702 0.995659 1.0033 0.999653 1.00537 0.999468 0.999322 0.99702 0.999382 0.995772 0.999653 0.996827 0.999468 0.995592 0.99702 0.995659 0.995772 0.994501 0.999508 0.99799 0.999322 0.99702 0.996643 0.995813 0.995557 0.993599 0.99799 0.997796 0.99702 0.995659 0.995813 0.996967 0.993599 0.994301 0.999322 0.99702 0.999382 0.995772 0.995557 0.993599 0.993338 0.995205 0.99702 0.995659 0.995772 0.994501 0.993599 0.994301 0.995205 0.987695 0.997722 0.997496 0.996827 0.992377 0.997796 0.996533 0.995659 0.992754 0.997496 0.997838 0.992377 0.993805 0.996533 0.994583 0.992754 0.993372 0.996827 0.992377 0.995592 0.991405 0.995659 0.992754 0.994501 0.993023 0.992377 0.993805 0.991405 0.993088 0.992754 0.993372 0.993023 0.986078 0.997796 0.996533 0.995659 0.992754 0.996967 0.995942 0.994301 0.992151 0.996533 0.994583 0.992754 0.993372 0.995942 0.996855 0.992151 0.993095 0.995659 0.992754 0.994501 0.993023 0.994301 0.992151 0.987695 0.990879 0.992754 0.993372 0.993023 0.986078 0.992151 0.993095 0.990879 0.994383 0.996643 0.995813 0.995557 0.993599 0.996721 0.99547 0.994956 0.994293 0.995813 0.996967 0.993599 0.994301 0.99547 0.995942 0.994293 0.992151 0.995557 0.993599 0.993338 0.995205 0.994956 0.994293 0.994458 0.993055 0.993599 0.994301 0.995205 0.987695 0.994293 0.992151 0.993055 0.990879 0.996721 0.99547 0.994956 0.994293 0.997464 0.996531 0.993039 0.993324 0.99547 0.995942 0.994293 0.992151 0.996531 0.996855 0.993324 0.993095 0.994956 0.994293 0.994458 0.993055 0.993039 0.993324 0.98966 0.989563 0.994293 0.992151 0.993055 0.990879 0.993324 0.993095 0.989563 0.994383 1.0019 0.999771 0.999508 0.99799 1.00039 0.998978 0.999261 0.998241 0.999771 0.997722 0.99799 0.997796 0.998978 0.997496 0.998241 0.996533 0.999508 0.99799 0.996643 0.995813 0.999261 0.998241 0.996721 0.99547 0.99799 0.997796 0.995813 0.996967 0.998241 0.996533 0.99547 0.995942 1.00039 0.998978 0.999261 0.998241 1 0.999294 0.999213 0.997565 0.998978 0.997496 0.998241 0.996533 0.999294 0.997838 0.997565 0.994583 0.999261 0.998241 0.996721 0.99547 0.999213 0.997565 0.997464 0.996531 0.998241 0.996533 0.99547 0.995942 0.997565 0.994583 0.996531 0.996855 1.00625 1.00863 1.00874 1.01364 1.00719 1.0091 1.01525 1.01427 1.00863 1.00462 1.01364 1.01211 1.0091 1.00509 1.01427 1.01003 1.00874 1.01364 1.01284 1.01734 1.01525 1.01427 1.01222 1.01212 1.01364 1.01211 1.01734 1.01051 1.01427 1.01003 1.01212 1.01342 1.00719 1.0091 1.01525 1.01427 1.00547 1.00671 1.01461 1.01485 1.0091 1.00509 1.01427 1.01003 1.00671 1.0052 1.01485 1.00585 1.01525 1.01427 1.01222 1.01212 1.01461 1.01485 1.00757 1.01672 1.01427 1.01003 1.01212 1.01342 1.01485 1.00585 1.01672 1.01022 1.00462 1.00388 1.01211 1.00781 1.00509 1.00591 1.01003 1.00934 1.00388 1.00189 1.00781 1.00265 1.00591 1.00339 1.00934 1.00868 1.01211 1.00781 1.01051 1.01009 1.01003 1.00934 1.01342 1.01475 1.00781 1.00265 1.01009 1.00665 1.00934 1.00868 1.01475 1.00628 1.00509 1.00591 1.01003 1.00934 1.0052 1.00775 1.00585 1.00628 1.00591 1.00339 1.00934 1.00868 1.00775 1.00368 1.00628 1.00862 1.01003 1.00934 1.01342 1.01475 1.00585 1.00628 1.01022 1.00972 1.00934 1.00868 1.01475 1.00628 1.00628 1.00862 1.00972 1.00752 1.00547 1.00671 1.01461 1.01485 1.00541 1.00454 1.00769 1.01127 1.00671 1.0052 1.01485 1.00585 1.00454 1.00775 1.01127 1.00628 1.01461 1.01485 1.00757 1.01672 1.00769 1.01127 1.01225 1.01328 1.01485 1.00585 1.01672 1.01022 1.01127 1.00628 1.01328 1.00972 1.00541 1.00454 1.00769 1.01127 1.00151 1.0036 1.00375 1.00402 1.00454 1.00775 1.01127 1.00628 1.0036 1.00368 1.00402 1.00862 1.00769 1.01127 1.01225 1.01328 1.00375 1.00402 1.00637 1.00719 1.01127 1.00628 1.01328 1.00972 1.00402 1.00862 1.00719 1.00752 1.00625 1.00863 1.00719 1.0091 1.00186 1.00186 1.00353 1.00478 1.00863 1.00462 1.0091 1.00509 1.00186 1.00388 1.00478 1.00591 1.00719 1.0091 1.00547 1.00671 1.00353 1.00478 1.00541 1.00454 1.0091 1.00509 1.00671 1.0052 1.00478 1.00591 1.00454 1.00775 1.00186 1.00186 1.00353 1.00478 1 1.00022 1.00049 1.00182 1.00186 1.00388 1.00478 1.00591 1.00022 1.00189 1.00182 1.00339 1.00353 1.00478 1.00541 1.00454 1.00049 1.00182 1.00151 1.0036 1.00478 1.00591 1.00454 1.00775 1.00182 1.00339 1.0036 1.00368 1.00836 1.00745 1.01361 1.01344 1.00804 1.00937 1.01 1.0063 1.00745 1.00778 1.01344 1.00931 1.00937 1.01323 1.0063 1.01628 1.01361 1.01344 1.02273 1.01899 1.01 1.0063 1.02376 1.02311 1.01344 1.00931 1.01899 1.00988 1.0063 1.01628 1.02311 1.01153 1.00804 1.00937 1.01 1.0063 1.00688 1.00738 1.0095 1.01122 1.00937 1.01323 1.0063 1.01628 1.00738 1.00576 1.01122 1.01616 1.01 1.0063 1.02376 1.02311 1.0095 1.01122 1.01637 1.01736 1.0063 1.01628 1.02311 1.01153 1.01122 1.01616 1.01736 1.01908 1.00778 1.00501 1.00931 1.00833 1.01323 1.00626 1.01628 1.00523 1.00501 1.00172 1.00833 1.004 1.00626 1.0031 1.00523 1.00825 1.00931 1.00833 1.00988 1.01717 1.01628 1.00523 1.01153 1.01436 1.00833 1.004 1.01717 1.00414 1.00523 1.00825 1.01436 1.00713 1.01323 1.00626 1.01628 1.00523 1.00576 1.00589 1.01616 1.00971 1.00626 1.0031 1.00523 1.00825 1.00589 1.00357 1.00971 1.00711 1.01628 1.00523 1.01153 1.01436 1.01616 1.00971 1.01908 1.01819 1.00523 1.00825 1.01436 1.00713 1.00971 1.00711 1.01819 1.0155 1.00688 1.00738 1.0095 1.01122 1.00461 1.00536 1.00985 1.00685 1.00738 1.00576 1.01122 1.01616 1.00536 1.00589 1.00685 1.00971 1.0095 1.01122 1.01637 1.01736 1.00985 1.00685 1.00217 1.01868 1.01122 1.01616 1.01736 1.01908 1.00685 1.00971 1.01868 1.01819 1.00461 1.00536 1.00985 1.00685 1.00151 1.00217 1.00343 1.0059 1.00536 1.00589 1.00685 1.00971 1.00217 1.00357 1.0059 1.00711 1.00985 1.00685 1.00217 1.01868 1.00343 1.0059 1.00526 1.00412 1.00685 1.00971 1.01868 1.01819 1.0059 1.00711 1.00412 1.0155 1.00836 1.00745 1.00804 1.00937 1.00112 1.00241 1.00268 1.00351 1.00745 1.00778 1.00937 1.01323 1.00241 1.00501 1.00351 1.00626 1.00804 1.00937 1.00688 1.00738 1.00268 1.00351 1.00461 1.00536 1.00937 1.01323 1.00738 1.00576 1.00351 1.00626 1.00536 1.00589 1.00112 1.00241 1.00268 1.00351 1 1.00034 1.00062 1.00199 1.00241 1.00501 1.00351 1.00626 1.00034 1.00172 1.00199 1.0031 1.00268 1.00351 1.00461 1.00536 1.00062 1.00199 1.00151 1.00217 1.00351 1.00626 1.00536 1.00589 1.00199 1.0031 1.00217 1.00357 1.00196 0.999822 1.00269 0.999565 0.999514 0.997471 0.998949 0.99595 0.999822 0.998766 0.999565 0.996289 0.997471 0.997069 0.99595 0.996101 1.00269 0.999565 1.00555 0.999665 0.998949 0.99595 0.999268 0.998077 0.999565 0.996289 0.999665 0.995251 0.99595 0.996101 0.998077 0.99823 0.999514 0.997471 0.998949 0.99595 0.99808 0.99716 0.996659 0.993863 0.997471 0.997069 0.99595 0.996101 0.99716 0.995866 0.993863 0.992141 0.998949 0.99595 0.999268 0.998077 0.996659 0.993863 0.993839 0.990596 0.99595 0.996101 0.998077 0.99823 0.993863 0.992141 0.990596 0.988955 0.998766 0.995986 0.996289 0.994055 0.997069 0.996625 0.996101 0.994125 0.995986 0.99609 0.994055 0.990567 0.996625 0.997184 0.994125 0.993566 0.996289 0.994055 0.995251 0.991013 0.996101 0.994125 0.99823 0.996696 0.994055 0.990567 0.991013 0.989772 0.994125 0.993566 0.996696 0.991894 0.997069 0.996625 0.996101 0.994125 0.995866 0.994937 0.992141 0.99126 0.996625 0.997184 0.994125 0.993566 0.994937 0.996488 0.99126 0.990267 0.996101 0.994125 0.99823 0.996696 0.992141 0.99126 0.988955 0.985509 0.994125 0.993566 0.996696 0.991894 0.99126 0.990267 0.985509 0.993156 0.99808 0.99716 0.996659 0.993863 0.99607 0.99492 0.994161 0.991517 0.99716 0.995866 0.993863 0.992141 0.99492 0.994937 0.991517 0.99126 0.996659 0.993863 0.993839 0.990596 0.994161 0.991517 0.989334 0.989378 0.993863 0.992141 0.990596 0.988955 0.991517 0.99126 0.989378 0.985509 0.99607 0.99492 0.994161 0.991517 0.995802 0.995229 0.99387 0.993397 0.99492 0.994937 0.991517 0.99126 0.995229 0.996488 0.993397 0.990267 0.994161 0.991517 0.989334 0.989378 0.99387 0.993397 0.991601 0.986998 0.991517 0.99126 0.989378 0.985509 0.993397 0.990267 0.986998 0.993156 1.00196 0.999822 0.999514 0.997471 1.00026 0.99919 0.998867 0.997485 0.999822 0.998766 0.997471 0.997069 0.99919 0.995986 0.997485 0.996625 0.999514 0.997471 0.99808 0.99716 0.998867 0.997485 0.99607 0.99492 0.997471 0.997069 0.99716 0.995866 0.997485 0.996625 0.99492 0.994937 1.00026 0.99919 0.998867 0.997485 1 0.998733 0.999554 0.998328 0.99919 0.995986 0.997485 0.996625 0.998733 0.99609 0.998328 0.997184 0.998867 0.997485 0.99607 0.99492 0.999554 0.998328 0.995802 0.995229 0.997485 0.996625 0.99492 0.994937 0.998328 0.997184 0.995229 0.996488 0.99731 0.997517 0.993929 0.99463 0.996229 0.995425 0.99335 0.994444 0.997517 0.99836 0.99463 0.994179 0.995425 0.996953 0.994444 0.995214 0.993929 0.99463 0.987134 0.994938 0.99335 0.994444 0.989555 0.9914 0.99463 0.994179 0.994938 0.995509 0.994444 0.995214 0.9914 0.996957 0.996229 0.995425 0.99335 0.994444 0.996939 0.995177 0.991988 0.995124 0.995425 0.996953 0.994444 0.995214 0.995177 0.996883 0.995124 0.994424 0.99335 0.994444 0.989555 0.9914 0.991988 0.995124 0.985253 0.993719 0.994444 0.995214 0.9914 0.996957 0.995124 0.994424 0.993719 0.994472 0.99836 0.999932 0.994179 1.00054 0.996953 0.997767 0.995214 0.997604 0.999932 1.00178 1.00054 1.0036 0.997767 0.999459 0.997604 0.999742 0.994179 1.00054 0.995509 1.00032 0.995214 0.997604 0.996957 0.996076 1.00054 1.0036 1.00032 1.00584 0.997604 0.999742 0.996076 0.999494 0.996953 0.997767 0.995214 0.997604 0.996883 0.996836 0.994424 0.994683 0.997767 0.999459 0.997604 0.999742 0.996836 0.996992 0.994683 0.99673 0.995214 0.997604 0.996957 0.996076 0.994424 0.994683 0.994472 0.99053 0.997604 0.999742 0.996076 0.999494 0.994683 0.99673 0.99053 0.99432 0.996939 0.995177 0.991988 0.995124 0.996135 0.995698 0.991217 0.991997 0.995177 0.996883 0.995124 0.994424 0.995698 0.996836 0.991997 0.994683 0.991988 0.995124 0.985253 0.993719 0.991217 0.991997 0.990795 0.990353 0.995124 0.994424 0.993719 0.994472 0.991997 0.994683 0.990353 0.99053 0.996135 0.995698 0.991217 0.991997 0.996302 0.996525 0.994816 0.993081 0.995698 0.996836 0.991997 0.994683 0.996525 0.996992 0.993081 0.99673 0.991217 0.991997 0.990795 0.990353 0.994816 0.993081 0.989397 0.989341 0.991997 0.994683 0.990353 0.99053 0.993081 0.99673 0.989341 0.99432 0.99731 0.997517 0.996229 0.995425 0.999193 0.999318 0.998461 0.997428 0.997517 0.99836 0.995425 0.996953 0.999318 0.999932 0.997428 0.997767 0.996229 0.995425 0.996939 0.995177 0.998461 0.997428 0.996135 0.995698 0.995425 0.996953 0.995177 0.996883 0.997428 0.997767 0.995698 0.996836 0.999193 0.999318 0.998461 0.997428 1 1.00054 0.999205 0.998918 0.999318 0.999932 0.997428 0.997767 1.00054 1.00178 0.998918 0.999459 0.998461 0.997428 0.996135 0.995698 0.999205 0.998918 0.996302 0.996525 0.997428 0.997767 0.995698 0.996836 0.998918 0.999459 0.996525 0.996992 0.99731 0.996229 0.993929 0.99335 0.996377 0.9959 0.994829 0.990126 0.996229 0.996939 0.99335 0.991988 0.9959 0.996946 0.990126 0.993528 0.993929 0.99335 0.987134 0.989555 0.994829 0.990126 0.995377 0.994704 0.99335 0.991988 0.989555 0.985253 0.990126 0.993528 0.994704 0.990563 0.996377 0.9959 0.994829 0.990126 0.997558 0.996707 0.996409 0.995081 0.9959 0.996946 0.990126 0.993528 0.996707 0.997408 0.995081 0.99144 0.994829 0.990126 0.995377 0.994704 0.996409 0.995081 0.993234 0.992629 0.990126 0.993528 0.994704 0.990563 0.995081 0.99144 0.992629 0.991124 0.996939 0.996135 0.991988 0.991217 0.996946 0.994414 0.993528 0.997418 0.996135 0.996302 0.991217 0.994816 0.994414 0.997436 0.997418 0.99455 0.991988 0.991217 0.985253 0.990795 0.993528 0.997418 0.990563 0.993256 0.991217 0.994816 0.990795 0.989397 0.997418 0.99455 0.993256 0.99209 0.996946 0.994414 0.993528 0.997418 0.997408 0.997155 0.99144 0.993284 0.994414 0.997436 0.997418 0.99455 0.997155 0.996537 0.993284 0.996533 0.993528 0.997418 0.990563 0.993256 0.99144 0.993284 0.991124 0.991837 0.997418 0.99455 0.993256 0.99209 0.993284 0.996533 0.991837 0.989813 0.997558 0.996707 0.996409 0.995081 0.999918 0.998155 1.0001 0.996579 0.996707 0.997408 0.995081 0.99144 0.998155 0.997155 0.996579 0.993284 0.996409 0.995081 0.993234 0.992629 1.0001 0.996579 1.00064 0.994459 0.995081 0.99144 0.992629 0.991124 0.996579 0.993284 0.994459 0.991837 0.999918 0.998155 1.0001 0.996579 1.00151 0.999345 1.00375 0.99907 0.998155 0.997155 0.996579 0.993284 0.999345 0.996537 0.99907 0.996533 1.0001 0.996579 1.00064 0.994459 1.00375 0.99907 1.00637 0.999214 0.996579 0.993284 0.994459 0.991837 0.99907 0.996533 0.999214 0.989813 0.99731 0.996229 0.996377 0.9959 0.999193 0.998461 0.999218 0.998067 0.996229 0.996939 0.9959 0.996946 0.998461 0.996135 0.998067 0.994414 0.996377 0.9959 0.997558 0.996707 0.999218 0.998067 0.999918 0.998155 0.9959 0.996946 0.996707 0.997408 0.998067 0.994414 0.998155 0.997155 0.999193 0.998461 0.999218 0.998067 1 0.999205 1.00049 0.998628 0.998461 0.996135 0.998067 0.994414 0.999205 0.996302 0.998628 0.997436 0.999218 0.998067 0.999918 0.998155 1.00049 0.998628 1.00151 0.999345 0.998067 0.994414 0.998155 0.997155 0.998628 0.997436 0.999345 0.996537 1.0019 0.999508 1.0033 0.999322 0.999957 0.998044 1.00005 0.99668 0.999508 0.996643 0.999322 0.995557 0.998044 0.997037 0.99668 0.995216 1.0033 0.999322 1.00537 0.999382 1.00005 0.99668 1.00057 0.997467 0.999322 0.995557 0.999382 0.993338 0.99668 0.995216 0.997467 0.998465 0.999957 0.998044 1.00005 0.99668 0.998321 0.997876 0.995219 0.99574 0.998044 0.997037 0.99668 0.995216 0.997876 0.994675 0.99574 0.993098 1.00005 0.99668 1.00057 0.997467 0.995219 0.99574 0.990986 0.994696 0.99668 0.995216 0.997467 0.998465 0.99574 0.993098 0.994696 0.992672 0.996643 0.996721 0.995557 0.994956 0.997037 0.997656 0.995216 0.992938 0.996721 0.997464 0.994956 0.993039 0.997656 0.996359 0.992938 0.99432 0.995557 0.994956 0.993338 0.994458 0.995216 0.992938 0.998465 0.986838 0.994956 0.993039 0.994458 0.98966 0.992938 0.99432 0.986838 0.992744 0.997037 0.997656 0.995216 0.992938 0.994675 0.995593 0.993098 0.990545 0.997656 0.996359 0.992938 0.99432 0.995593 0.99637 0.990545 0.993722 0.995216 0.992938 0.998465 0.986838 0.993098 0.990545 0.992672 0.993243 0.992938 0.99432 0.986838 0.992744 0.990545 0.993722 0.993243 0.985402 0.998321 0.997876 0.995219 0.99574 0.997032 0.994808 0.994197 0.992073 0.997876 0.994675 0.99574 0.993098 0.994808 0.995593 0.992073 0.990545 0.995219 0.99574 0.990986 0.994696 0.994197 0.992073 0.996266 0.991538 0.99574 0.993098 0.994696 0.992672 0.992073 0.990545 0.991538 0.993243 0.997032 0.994808 0.994197 0.992073 0.99609 0.995392 0.990567 0.994137 0.994808 0.995593 0.992073 0.990545 0.995392 0.99637 0.994137 0.993722 0.994197 0.992073 0.996266 0.991538 0.990567 0.994137 0.989772 0.990083 0.992073 0.990545 0.991538 0.993243 0.994137 0.993722 0.990083 0.985402 1.0019 0.999508 0.999957 0.998044 1.00039 0.999261 0.999334 0.997951 0.999508 0.996643 0.998044 0.997037 0.999261 0.996721 0.997951 0.997656 0.999957 0.998044 0.998321 0.997876 0.999334 0.997951 0.997032 0.994808 0.998044 0.997037 0.997876 0.994675 0.997951 0.997656 0.994808 0.995593 1.00039 0.999261 0.999334 0.997951 1 0.999213 0.998733 0.997831 0.999261 0.996721 0.997951 0.997656 0.999213 0.997464 0.997831 0.996359 0.999334 0.997951 0.997032 0.994808 0.998733 0.997831 0.99609 0.995392 0.997951 0.997656 0.994808 0.995593 0.997831 0.996359 0.995392 0.99637 1.00178 0.999889 1.0036 1.00047 0.999459 0.998425 0.999742 0.997695 0.999889 0.997945 1.00047 0.996889 0.998425 0.996167 0.997695 0.995625 1.0036 1.00047 1.00584 1.00028 0.999742 0.997695 0.999494 0.997074 1.00047 0.996889 1.00028 0.995355 0.997695 0.995625 0.997074 0.992585 0.999459 0.998425 0.999742 0.997695 0.996992 0.996598 0.99673 0.995474 0.998425 0.996167 0.997695 0.995625 0.996598 0.99602 0.995474 0.995564 0.999742 0.997695 0.999494 0.997074 0.99673 0.995474 0.99432 0.99203 0.997695 0.995625 0.997074 0.992585 0.995474 0.995564 0.99203 0.995116 0.997838 0.997474 0.993805 0.991883 0.996886 0.995852 0.995807 0.994677 0.997474 0.993248 0.991883 0.992253 0.995852 0.997134 0.994677 0.994538 0.993805 0.991883 0.993088 0.989357 0.995807 0.994677 0.992189 0.996586 0.991883 0.992253 0.989357 0.986614 0.994677 0.994538 0.996586 0.995076 0.996886 0.995852 0.995807 0.994677 0.997945 0.996167 0.996889 0.995625 0.995852 0.997134 0.994677 0.994538 0.996167 0.99602 0.995625 0.995564 0.995807 0.994677 0.992189 0.996586 0.996889 0.995625 0.995355 0.992585 0.994677 0.994538 0.996586 0.995076 0.995625 0.995564 0.992585 0.995116 0.996302 0.996525 0.994816 0.993081 0.996318 0.995564 0.991127 0.994884 0.996525 0.996992 0.993081 0.99673 0.995564 0.996598 0.994884 0.995474 0.994816 0.993081 0.989397 0.989341 0.991127 0.994884 0.990625 0.990382 0.993081 0.99673 0.989341 0.99432 0.994884 0.995474 0.990382 0.99203 0.996318 0.995564 0.991127 0.994884 0.993248 0.997134 0.992253 0.994538 0.995564 0.996598 0.994884 0.995474 0.997134 0.99602 0.994538 0.995564 0.991127 0.994884 0.990625 0.990382 0.992253 0.994538 0.986614 0.995076 0.994884 0.995474 0.990382 0.99203 0.994538 0.995564 0.995076 0.995116 1 1.00054 0.999205 0.998918 0.999294 0.999444 0.9978 0.998356 1.00054 1.00178 0.998918 0.999459 0.999444 0.999889 0.998356 0.998425 0.999205 0.998918 0.996302 0.996525 0.9978 0.998356 0.996318 0.995564 0.998918 0.999459 0.996525 0.996992 0.998356 0.998425 0.995564 0.996598 0.999294 0.999444 0.9978 0.998356 0.997838 0.996886 0.997474 0.995852 0.999444 0.999889 0.998356 0.998425 0.996886 0.997945 0.995852 0.996167 0.9978 0.998356 0.996318 0.995564 0.997474 0.995852 0.993248 0.997134 0.998356 0.998425 0.995564 0.996598 0.995852 0.996167 0.997134 0.99602 0.99676 0.99685 0.997187 0.993704 0.999813 0.998513 0.999891 0.997008 0.99685 0.994937 0.993704 0.992119 0.998513 0.996194 0.997008 0.9938 0.