# vtk DataFile Version 3.0
#This file was generated by the deal.II library on 2025/4/19 at 2:10:23
ASCII
DATASET UNSTRUCTURED_GRID

POINTS 8192 double
-0.298332 0.0201013 -0.333397
-0.406754 0.0183933 -0.277675
-0.473604 0.00999936 -0.508668
-0.584136 0.0101672 -0.403269
-0.359147 -0.0972393 -0.279382
-0.452663 -0.0857038 -0.23771
-0.5361 -0.145755 -0.411407
-0.62194 -0.124441 -0.335556
-0.406754 0.0183933 -0.277675
-0.510352 0.0230048 -0.212646
-0.584136 0.0101672 -0.403269
-0.685178 0.0173034 -0.288401
-0.452663 -0.0857038 -0.23771
-0.541809 -0.0683914 -0.188997
-0.62194 -0.124441 -0.335556
-0.700693 -0.0976801 -0.253423
-0.473604 0.00999936 -0.508668
-0.584136 0.0101672 -0.403269
-0.634622 0.0249796 -0.682082
-0.7491 0.0221037 -0.52301
-0.5361 -0.145755 -0.411407
-0.62194 -0.124441 -0.335556
-0.701376 -0.177698 -0.538242
-0.779239 -0.149086 -0.426228
-0.584136 0.0101672 -0.403269
-0.685178 0.0173034 -0.288401
-0.7491 0.0221037 -0.52301
-0.850813 0.026951 -0.355686
-0.62194 -0.124441 -0.335556
-0.700693 -0.0976801 -0.253423
-0.779239 -0.149086 -0.426228
-0.849775 -0.115902 -0.310064
-0.359147 -0.0972393 -0.279382
-0.452663 -0.0857038 -0.23771
-0.5361 -0.145755 -0.411407
-0.62194 -0.124441 -0.335556
-0.41065 -0.214071 -0.214018
-0.489959 -0.189591 -0.189538
-0.58444 -0.298485 -0.298432
-0.648054 -0.257508 -0.257455
-0.452663 -0.0857038 -0.23771
-0.541809 -0.0683914 -0.188997
-0.62194 -0.124441 -0.335556
-0.700693 -0.0976801 -0.253423
-0.489959 -0.189591 -0.189538
-0.566212 -0.160423 -0.160369
-0.648054 -0.257508 -0.257455
-0.707187 -0.21276 -0.212705
-0.5361 -0.145755 -0.411407
-0.62194 -0.124441 -0.335556
-0.701376 -0.177698 -0.538242
-0.779239 -0.149086 -0.426228
-0.58444 -0.298485 -0.298432
-0.648054 -0.257508 -0.257455
-0.747784 -0.373545 -0.373475
-0.794363 -0.316797 -0.316727
-0.62194 -0.124441 -0.335556
-0.700693 -0.0976801 -0.253423
-0.779239 -0.149086 -0.426228
-0.849775 -0.115902 -0.310064
-0.648054 -0.257508 -0.257455
-0.707187 -0.21276 -0.212705
-0.794363 -0.316797 -0.316727
-0.838035 -0.258094 -0.258031
-0.510352 0.0230048 -0.212646
-0.479418 0.0216567 -0.0916997
-0.685178 0.0173034 -0.288401
-0.6919 0.0136443 -0.134813
-0.541809 -0.0683914 -0.188997
-0.512939 -0.0817965 -0.0817452
-0.700693 -0.0976801 -0.253423
-0.700132 -0.118284 -0.118233
-0.479418 0.0216567 -0.0916997
-0.448202 0.0235595 0.0236073
-0.6919 0.0136443 -0.134813
-0.693886 0.0136182 0.013666
-0.512939 -0.0817965 -0.0817452
-0.485083 -0.0922913 0.0211642
-0.700132 -0.118284 -0.118233
-0.697564 -0.135404 0.0131517
-0.685178 0.0173034 -0.288401
-0.6919 0.0136443 -0.134813
-0.850813 0.026951 -0.355686
-0.898698 0.0245472 -0.162708
-0.700693 -0.0976801 -0.253423
-0.700132 -0.118284 -0.118233
-0.849775 -0.115902 -0.310064
-0.880537 -0.142034 -0.141979
-0.6919 0.0136443 -0.134813
-0.693886 0.0136182 0.013666
-0.898698 0.0245472 -0.162708
-0.934317 0.0279794 0.0280451
-0.700132 -0.118284 -0.118233
-0.697564 -0.135404 0.0131517
-0.880537 -0.142034 -0.141979
-0.903719 -0.16266 0.0247153
-0.541809 -0.0683914 -0.188997
-0.512939 -0.0817965 -0.0817452
-0.700693 -0.0976801 -0.253423
-0.700132 -0.118284 -0.118233
-0.566212 -0.160423 -0.160369
-0.538419 -0.187397 -0.0666852
-0.707187 -0.21276 -0.212705
-0.697304 -0.251823 -0.0959739
-0.512939 -0.0817965 -0.0817452
-0.485083 -0.0922913 0.0211642
-0.700132 -0.118284 -0.118233
-0.697564 -0.135404 0.0131517
-0.538419 -0.187397 -0.0666852
-0.511564 -0.211597 0.024156
-0.697304 -0.251823 -0.0959739
-0.686391 -0.287352 0.0184546
-0.700693 -0.0976801 -0.253423
-0.700132 -0.118284 -0.118233
-0.849775 -0.115902 -0.310064
-0.880537 -0.142034 -0.141979
-0.707187 -0.21276 -0.212705
-0.697304 -0.251823 -0.0959739
-0.838035 -0.258094 -0.258031
-0.848166 -0.309134 -0.114856
-0.700132 -0.118284 -0.118233
-0.697564 -0.135404 0.0131517
-0.880537 -0.142034 -0.141979
-0.903719 -0.16266 0.0247153
-0.697304 -0.251823 -0.0959739
-0.686391 -0.287352 0.0184546
-0.848166 -0.309134 -0.114856
-0.853166 -0.354814 0.0279481
-0.41065 -0.214071 -0.214018
-0.489959 -0.189591 -0.189538
-0.58444 -0.298485 -0.298432
-0.648054 -0.257508 -0.257455
-0.353606 -0.277899 -0.0956571
-0.447122 -0.236227 -0.0841216
-0.530559 -0.409924 -0.144173
-0.616399 -0.334073 -0.122859
-0.489959 -0.189591 -0.189538
-0.566212 -0.160423 -0.160369
-0.648054 -0.257508 -0.257455
-0.707187 -0.21276 -0.212705
-0.447122 -0.236227 -0.0841216
-0.538419 -0.187397 -0.0666852
-0.616399 -0.334073 -0.122859
-0.697304 -0.251823 -0.0959739
-0.58444 -0.298485 -0.298432
-0.648054 -0.257508 -0.257455
-0.747784 -0.373545 -0.373475
-0.794363 -0.316797 -0.316727
-0.530559 -0.409924 -0.144173
-0.616399 -0.334073 -0.122859
-0.696593 -0.53724 -0.176584
-0.774456 -0.425225 -0.147972
-0.648054 -0.257508 -0.257455
-0.707187 -0.21276 -0.212705
-0.794363 -0.316797 -0.316727
-0.838035 -0.258094 -0.258031
-0.616399 -0.334073 -0.122859
-0.697304 -0.251823 -0.0959739
-0.774456 -0.425225 -0.147972
-0.848166 -0.309134 -0.114856
-0.353606 -0.277899 -0.0956571
-0.447122 -0.236227 -0.0841216
-0.530559 -0.409924 -0.144173
-0.616399 -0.334073 -0.122859
-0.298311 -0.333426 0.0201551
-0.406732 -0.277705 0.018447
-0.473582 -0.508698 0.0100531
-0.584114 -0.403299 0.010221
-0.447122 -0.236227 -0.0841216
-0.538419 -0.187397 -0.0666852
-0.616399 -0.334073 -0.122859
-0.697304 -0.251823 -0.0959739
-0.406732 -0.277705 0.018447
-0.511564 -0.211597 0.024156
-0.584114 -0.403299 0.010221
-0.686391 -0.287352 0.0184546
-0.530559 -0.409924 -0.144173
-0.616399 -0.334073 -0.122859
-0.696593 -0.53724 -0.176584
-0.774456 -0.425225 -0.147972
-0.473582 -0.508698 0.0100531
-0.584114 -0.403299 0.010221
-0.634593 -0.682126 0.025058
-0.749071 -0.523054 0.022182
-0.616399 -0.334073 -0.122859
-0.697304 -0.251823 -0.0959739
-0.774456 -0.425225 -0.147972
-0.848166 -0.309134 -0.114856
-0.584114 -0.403299 0.010221
-0.686391 -0.287352 0.0184546
-0.749071 -0.523054 0.022182
-0.853166 -0.354814 0.0279481
-0.298332 0.0201013 -0.333397
-0.406754 0.0183933 -0.277675
-0.359147 -0.0972393 -0.279382
-0.452663 -0.0857038 -0.23771
-0.134803 0.000546879 -0.159039
-0.314364 0.000874705 -0.137294
-0.255078 -0.139827 -0.139779
-0.392674 -0.119094 -0.119046
-0.406754 0.0183933 -0.277675
-0.510352 0.0230048 -0.212646
-0.452663 -0.0857038 -0.23771
-0.541809 -0.0683914 -0.188997
-0.314364 0.000874705 -0.137294
-0.479418 0.0216567 -0.0916997
-0.392674 -0.119094 -0.119046
-0.512939 -0.0817965 -0.0817452
-0.359147 -0.0972393 -0.279382
-0.452663 -0.0857038 -0.23771
-0.41065 -0.214071 -0.214018
-0.489959 -0.189591 -0.189538
-0.255078 -0.139827 -0.139779
-0.392674 -0.119094 -0.119046
-0.353606 -0.277899 -0.0956571
-0.447122 -0.236227 -0.0841216
-0.452663 -0.0857038 -0.23771
-0.541809 -0.0683914 -0.188997
-0.489959 -0.189591 -0.189538
-0.566212 -0.160423 -0.160369
-0.392674 -0.119094 -0.119046
-0.512939 -0.0817965 -0.0817452
-0.447122 -0.236227 -0.0841216
-0.538419 -0.187397 -0.0666852
-0.134803 0.000546879 -0.159039
-0.314364 0.000874705 -0.137294
-0.255078 -0.139827 -0.139779
-0.392674 -0.119094 -0.119046
0.0252473 0.0103434 0.0103605
-0.218549 -0.00228413 -0.00226704
-0.148886 -0.16379 -0.00413946
-0.328447 -0.142046 -0.00381163
-0.314364 0.000874705 -0.137294
-0.479418 0.0216567 -0.0916997
-0.392674 -0.119094 -0.119046
-0.512939 -0.0817965 -0.0817452
-0.218549 -0.00228413 -0.00226704
-0.448202 0.0235595 0.0236073
-0.328447 -0.142046 -0.00381163
-0.485083 -0.0922913 0.0211642
-0.255078 -0.139827 -0.139779
-0.392674 -0.119094 -0.119046
-0.353606 -0.277899 -0.0956571
-0.447122 -0.236227 -0.0841216
-0.148886 -0.16379 -0.00413946
-0.328447 -0.142046 -0.00381163
-0.298311 -0.333426 0.0201551
-0.406732 -0.277705 0.018447
-0.392674 -0.119094 -0.119046
-0.512939 -0.0817965 -0.0817452
-0.447122 -0.236227 -0.0841216
-0.538419 -0.187397 -0.0666852
-0.328447 -0.142046 -0.00381163
-0.485083 -0.0922913 0.0211642
-0.406732 -0.277705 0.018447
-0.511564 -0.211597 0.024156
0.298125 -0.0203758 0.3331
0.355754 0.0972852 0.264865
0.48199 -0.0485537 0.516965
0.541334 0.116883 0.381903
0.404565 -0.024627 0.270635
0.448152 0.0820225 0.222567
0.586226 -0.0504918 0.397338
0.62283 0.098103 0.308719
0.355754 0.0972852 0.264865
0.410119 0.213772 0.213703
0.541334 0.116883 0.381903
0.599762 0.290335 0.290238
0.448152 0.0820225 0.222567
0.487293 0.186548 0.186477
0.62283 0.098103 0.308719
0.656328 0.247781 0.247694
0.48199 -0.0485537 0.516965
0.541334 0.116883 0.381903
0.635027 -0.0252012 0.681842
0.685724 0.168116 0.494425
0.586226 -0.0504918 0.397338
0.62283 0.098103 0.308719
0.735791 -0.0413486 0.519229
0.759502 0.1365 0.396473
0.541334 0.116883 0.381903
0.599762 0.290335 0.290238
0.685724 0.168116 0.494425
0.739214 0.381972 0.381846
0.62283 0.098103 0.308719
0.656328 0.247781 0.247694
0.759502 0.1365 0.396473
0.782624 0.320461 0.320353
0.404565 -0.024627 0.270635
0.448152 0.0820225 0.222567
0.586226 -0.0504918 0.397338
0.62283 0.098103 0.308719
0.509934 -0.023279 0.21235
0.539396 0.0698162 0.182522
0.694805 -0.0370965 0.280832
0.707525 0.0850603 0.235504
0.448152 0.0820225 0.222567
0.487293 0.186548 0.186477
0.62283 0.098103 0.308719
0.656328 0.247781 0.247694
0.539396 0.0698162 0.182522
0.564675 0.161007 0.160934
0.707525 0.0850603 0.235504
0.716987 0.205385 0.205311
0.586226 -0.0504918 0.397338
0.62283 0.098103 0.308719
0.735791 -0.0413486 0.519229
0.759502 0.1365 0.396473
0.694805 -0.0370965 0.280832
0.707525 0.0850603 0.235504
0.85079 -0.0271987 0.355417
0.844434 0.116471 0.295501
0.62283 0.098103 0.308719
0.656328 0.247781 0.247694
0.759502 0.1365 0.396473
0.782624 0.320461 0.320353
0.707525 0.0850603 0.235504
0.716987 0.205385 0.205311
0.844434 0.116471 0.295501
0.8367 0.2593 0.25922
0.410119 0.213772 0.213703
0.349889 0.263379 0.0956704
0.599762 0.290335 0.290238
0.53547 0.380434 0.115255
0.487293 0.186548 0.186477
0.442287 0.221082 0.0804065
0.656328 0.247781 0.247694
0.616966 0.307244 0.0964798
0.349889 0.263379 0.0956704
0.298098 0.333147 -0.020429
0.53547 0.380434 0.115255
0.481963 0.517013 -0.0486068
0.442287 0.221082 0.0804065
0.404538 0.270682 -0.0246801
[...]
POINT_DATA 8192
SCALARS D_0 double 1
LOOKUP_TABLE default
0.00280736 0.00331886 0.00425538 0.0046478 0.00330694 0.00372056 0.00475041 0.00500654 0.00331886 0.00389499 0.0046478 0.00511401 0.00372056 0.00418427 0.00500654 0.00532239 0.00425538 0.0046478 0.00568255 0.00598922 0.00475041 0.00500654 0.00620624 0.00631356 0.0046478 0.00511401 0.00598922 0.00636279 0.00500654 0.00532239 0.00631356 0.00647704 0.00330694 0.00372056 0.00475041 0.00500654 0.00375944 0.00409367 0.00515682 0.00531732 0.00372056 0.00418427 0.00500654 0.00532239 0.00409367 0.00446692 0.00531732 0.00551517 0.00475041 0.00500654 0.00620624 0.00631356 0.00515682 0.00531732 0.00655849 0.00654164 0.00500654 0.00532239 0.00631356 0.00647704 0.00531732 0.00551517 0.00654164 0.00656495 0.00389499 0.00358434 0.00511401 0.00501081 0.00418427 0.00387871 0.00532239 0.00516271 0.00358434 0.00332029 0.00501081 0.00494541 0.00387871 0.00358366 0.00516271 0.00501005 0.00511401 0.00501081 0.00636279 0.00648012 0.00532239 0.00516271 0.00647704 0.00647207 0.00501081 0.00494541 0.00648012 0.00663243 0.00516271 0.00501005 0.00647207 0.00647988 0.00418427 0.00387871 0.00532239 0.00516271 0.00446692 0.00418378 0.00551517 0.00532186 0.00387871 0.00358366 0.00516271 0.00501005 0.00418378 0.00389379 0.00532186 0.00511276 0.00532239 0.00516271 0.00647704 0.00647207 0.00551517 0.00532186 0.00656495 0.00647688 0.00516271 0.00501005 0.00647207 0.00647988 0.00532186 0.00511276 0.00647688 0.00636238 0.00375944 0.00409367 0.00515682 0.00531732 0.00330696 0.0037202 0.00475001 0.00500595 0.00409367 0.00446692 0.00531732 0.00551517 0.0037202 0.00418378 0.00500595 0.00532186 0.00515682 0.00531732 0.00655849 0.00654164 0.00475001 0.00500595 0.00620578 0.00631307 0.00531732 0.00551517 0.00654164 0.00656495 0.00500595 0.00532186 0.00631307 0.00647688 0.00330696 0.0037202 0.00475001 0.00500595 0.00280731 0.00331798 0.00425491 0.00464654 0.0037202 0.00418378 0.00500595 0.00532186 0.00331798 0.00389379 0.00464654 0.00511276 0.00475001 0.00500595 0.00620578 0.00631307 0.00425491 0.00464654 0.0056813 0.00598796 0.00500595 0.00532186 0.00631307 0.00647688 0.00464654 0.00511276 0.00598796 0.00636238 0.00280736 0.00331886 0.00330694 0.00372056 0.00140617 0.0024421 0.00237405 0.00308496 0.00331886 0.00389499 0.00372056 0.00418427 0.0024421 0.00358434 0.00308496 0.00387871 0.00330694 0.00372056 0.00375944 0.00409367 0.00237405 0.00308496 0.00330696 0.0037202 0.00372056 0.00418427 0.00409367 0.00446692 0.00308496 0.00387871 0.0037202 0.00418378 0.00140617 0.0024421 0.00237405 0.00308496 8.03244e-05 0.00163059 0.00140655 0.00244176 0.0024421 0.00358434 0.00308496 0.00387871 0.00163059 0.00332029 0.00244176 0.00358366 0.00237405 0.00308496 0.00330696 0.0037202 0.00140655 0.00244176 0.00280731 0.00331798 0.00308496 0.00387871 0.0037202 0.00418378 0.00244176 0.00358366 0.00331798 0.00389379 0.00285716 0.00330471 0.0042683 0.00467745 0.00330287 0.00368656 0.00459234 0.00493055 0.00330471 0.00381489 0.00467745 0.00525118 0.00368656 0.00410451 0.00493055 0.00535828 0.0042683 0.00467745 0.00572799 0.00602253 0.00459234 0.00493055 0.00587902 0.00613009 0.00467745 0.00525118 0.00602253 0.00659314 0.00493055 0.00535828 0.00613009 0.00650951 0.00330287 0.00368656 0.00459234 0.00493055 0.00389245 0.00417327 0.00513887 0.00532734 0.00368656 0.00410451 0.00493055 0.00535828 0.00417327 0.00448258 0.00532734 0.00556957 0.00459234 0.00493055 0.00587902 0.00613009 0.00513887 0.00532734 0.00635835 0.00642302 0.00493055 0.00535828 0.00613009 0.00650951 0.00532734 0.00556957 0.00642302 0.00656172 0.00381489 0.00330662 0.00525118 0.00467809 0.00410451 0.00368704 0.00535828 0.00493089 0.00330662 0.0028597 0.00467809 0.00427058 0.00368704 0.00330365 0.00493089 0.00459359 0.00525118 0.00467809 0.00659314 0.00602342 0.00535828 0.00493089 0.00650951 0.0061303 0.00467809 0.00427058 0.00602342 0.00572964 0.00493089 0.00459359 0.0061303 0.00588005 0.00410451 0.00368704 0.00535828 0.00493089 0.00448258 0.00417378 0.00556957 0.00532779 0.00368704 0.00330365 0.00493089 0.00459359 0.00417378 0.00389304 0.00532779 0.00513953 0.00535828 0.00493089 0.00650951 0.0061303 0.00556957 0.00532779 0.00656172 0.00642388 0.00493089 0.00459359 0.0061303 0.00588005 0.00532779 0.00513953 0.00642388 0.00635985 0.00389245 0.00417327 0.00513887 0.00532734 0.00353923 0.00383388 0.00496935 0.00510246 0.00417327 0.00448258 0.00532734 0.00556957 0.00383388 0.00417378 0.00510246 0.00532779 0.00513887 0.00532734 0.00635835 0.00642302 0.00496935 0.00510246 0.00636585 0.00632165 0.00532734 0.00556957 0.00642302 0.00656172 0.00510246 0.00532779 0.00632165 0.00642388 0.00353923 0.00383388 0.00496935 0.00510246 0.00327153 0.00353939 0.0049509 0.00496972 0.00383388 0.00417378 0.00510246 0.00532779 0.00353939 0.00389304 0.00496972 0.00513953 0.00496935 0.00510246 0.00636585 0.00632165 0.0049509 0.00496972 0.00657906 0.00636669 0.00510246 0.00532779 0.00632165 0.00642388 0.00496972 0.00513953 0.00636669 0.00635985 0.00285716 0.00330471 0.00330287 0.00368656 0.00141772 0.00233301 0.00242248 0.00302812 0.00330471 0.00381489 0.00368656 0.00410451 0.00233301 0.00330662 0.00302812 0.00368704 0.00330287 0.00368656 0.00389245 0.00417327 0.00242248 0.00302812 0.00353923 0.00383388 0.00368656 0.00410451 0.00417327 0.00448258 0.00302812 0.00368704 0.00383388 0.00417378 0.00141772 0.00233301 0.00242248 0.00302812 8.03244e-05 0.00141904 0.00167353 0.00242248 0.00233301 0.00330662 0.00302812 0.00368704 0.00141904 0.0028597 0.00242248 0.00330365 0.00242248 0.00302812 0.00353923 0.00383388 0.00167353 0.00242248 0.00327153 0.00353939 0.00302812 0.00368704 0.00383388 0.00417378 0.00242248 0.00330365 0.00353939 0.00389304 0.00243003 0.00269556 0.00355767 0.0036908 0.00316236 0.00332367 0.0043205 0.0043552 0.00269556 0.00320505 0.0036908 0.00414004 0.00332367 0.0036647 0.0043552 0.00461097 0.00355767 0.0036908 0.0047793 0.00474146 0.0043205 0.0043552 0.00549807 0.00540324 0.0036908 0.00414004 0.00474146 0.00511538 0.0043552 0.00461097 0.00540324 0.00558214 0.00316236 0.00332367 0.0043205 0.0043552 0.00387454 0.00393274 0.00505677 0.00498878 0.00332367 0.0036647 0.0043552 0.00461097 0.00393274 0.00412832 0.00498878 0.00508168 0.0043205 0.0043552 0.00549807 0.00540324 0.00505677 0.00498878 0.00621337 0.00602648 0.0043552 0.00461097 0.00540324 0.00558214 0.00498878 0.00508168 0.00602648 0.00602994 0.00320505 0.00302551 0.00414004 0.00415425 0.0036647 0.00346157 0.00461097 0.00459081 0.00302551 0.00295676 0.00415425 0.00435327 0.00346157 0.00330585 0.00459081 0.00465192 0.00414004 0.00415425 0.00511538 0.00533996 0.00461097 0.00459081 0.00558214 0.00575326 0.00415425 0.00435327 0.00533996 0.00581133 0.00459081 0.00465192 0.00575326 0.00603555 0.0036647 0.00346157 0.00461097 0.00459081 0.00412832 0.00395079 0.00508168 0.00508987 0.00346157 0.00330585 0.00459081 0.00465192 0.00395079 0.00378921 0.00508987 0.00512465 0.00461097 0.00459081 0.00558214 0.00575326 0.00508168 0.00508987 0.00602994 0.00622597 0.00459081 0.00465192 0.00575326 0.00603555 0.00508987 0.00512465 0.00622597 0.00645102 0.00387454 0.00393274 0.00505677 0.00498878 0.00362087 0.00369757 0.00507342 0.00497684 0.00393274 0.00412832 0.00498878 0.00508168 0.00369757 0.00395079 0.00497684 0.00508987 0.00505677 0.00498878 0.00621337 0.00602648 0.00507342 0.00497684 0.00643516 0.00620653 0.00498878 0.00508168 0.00602648 0.00602994 0.00497684 0.00508987 0.00620653 0.00622597 0.00362087 0.00369757 0.00507342 0.00497684 0.00341268 0.00348113 0.00514408 0.00499311 0.00369757 0.00395079 0.00497684 0.00508987 0.00348113 0.00378921 0.00499311 0.00512465 0.00507342 0.00497684 0.00643516 0.00620653 0.00514408 0.00499311 0.00672648 0.00641389 0.00497684 0.00508987 0.00620653 0.00622597 0.00499311 0.00512465 0.00641389 0.00645102 0.00243003 0.00269556 0.00316236 0.00332367 0.00122417 0.00200226 0.0024523 0.00284349 0.00269556 0.00320505 0.00332367 0.0036647 0.00200226 0.00302551 0.00284349 0.00346157 0.00316236 0.00332367 0.00387454 0.00393274 0.0024523 0.00284349 0.00362087 0.00369757 0.00332367 0.0036647 0.00393274 0.00412832 0.00284349 0.00346157 0.00369757 0.00395079 0.00122417 0.00200226 0.0024523 0.00284349 8.03244e-05 0.0015004 0.00179722 0.00241104 0.00200226 0.00302551 0.00284349 0.00346157 0.0015004 0.00295676 0.00241104 0.00330585 0.0024523 0.00284349 0.00362087 0.00369757 0.00179722 0.00241104 0.00341268 0.00348113 0.00284349 0.00346157 0.00369757 0.00395079 0.00241104 0.00330585 0.00348113 0.00378921 0.00227695 0.00299938 0.00348289 0.00419769 0.00259325 0.00319526 0.0036503 0.00425759 0.00299938 0.00371804 0.00419769 0.0048856 0.00319526 0.00381084 0.00425759 0.00486147 0.00348289 0.00419769 0.00462891 0.00536742 0.0036503 0.00425759 0.00468842 0.00531087 0.00419769 0.0048856 0.00536742 0.00605663 0.00425759 0.00486147 0.00531087 0.00591137 0.00259325 0.00319526 0.0036503 0.00425759 0.00304528 0.00348478 0.00399957 0.00444322 0.00319526 0.00381084 0.00425759 0.00486147 0.00348478 0.00396252 0.00444322 0.0049168 0.0036503 0.00425759 0.00468842 0.00531087 0.00399957 0.00444322 0.00495809 0.00540288 0.00425759 0.00486147 0.00531087 0.00591137 0.00444322 0.0049168 0.00540288 0.00586653 0.00371804 0.00350454 0.0048856 0.00492404 0.00381084 0.0036118 0.00486147 0.00487557 0.00350454 0.00325689 0.00492404 0.00489908 0.0036118 0.00339328 0.00487557 0.00486205 0.0048856 0.00492404 0.00605663 0.00635219 0.00486147 0.00487557 0.00591137 0.00615286 0.00492404 0.00489908 0.00635219 0.0065614 0.00487557 0.00486205 0.00615286 0.00635461 0.00381084 0.0036118 0.00486147 0.00487557 0.00396252 0.00379457 0.0049168 0.00493054 0.0036118 0.00339328 0.00487557 0.00486205 0.00379457 0.00362593 0.00493054 0.00494299 0.00486147 0.00487557 0.00591137 0.00615286 0.0049168 0.00493054 0.00586653 0.00607836 0.00487557 0.00486205 0.00615286 0.00635461 0.00493054 0.00494299 0.00607836 0.00628508 0.00304528 0.00348478 0.00399957 0.00444322 0.00288125 0.00328699 0.0040576 0.00444097 0.00348478 0.00396252 0.00444322 0.0049168 0.00328699 0.00379457 0.00444097 0.00493054 0.00399957 0.00444322 0.00495809 0.00540288 0.0040576 0.00444097 0.00526245 0.00560615 0.00444322 0.0049168 0.00540288 0.00586653 0.00444097 0.00493054 0.00560615 0.00607836 0.00288125 0.00328699 0.0040576 0.00444097 0.00282436 0.0031247 0.00422373 0.00447312 0.00328699 0.00379457 0.00444097 0.00493054 0.0031247 0.00362593 0.00447312 0.00494299 0.0040576 0.00444097 0.00526245 0.00560615 0.00422373 0.00447312 0.00567733 0.00585332 0.00444097 0.00493054 0.00560615 0.00607836 0.00447312 0.00494299 0.00585332 0.00628508 0.00227695 0.00299938 0.00259325 0.00319526 0.00113133 0.00230665 0.00190947 0.00272445 0.00299938 0.00371804 0.00319526 0.00381084 0.00230665 0.00350454 0.00272445 0.0036118 0.00259325 0.00319526 0.00304528 0.00348478 0.00190947 0.00272445 0.00288125 0.00328699 0.00319526 0.00381084 0.00348478 0.00396252 0.00272445 0.0036118 0.00328699 0.00379457 0.00113133 0.00230665 0.00190947 0.00272445 8.03244e-05 0.00156347 0.00137405 0.00225509 0.00230665 0.00350454 0.00272445 0.0036118 0.00156347 0.00325689 0.00225509 0.00339328 0.00190947 0.00272445 0.00288125 0.00328699 0.00137405 0.00225509 0.00282436 0.0031247 0.00272445 0.0036118 0.00328699 0.00379457 0.00225509 0.00339328 0.0031247 0.00362593 8.01598e-05 0.000898257 9.81272e-05 0.00125496 0.000709043 0.00132148 0.00102203 0.00175793 0.000898257 0.00185979 0.00125496 0.00254246 0.00132148 0.00206045 0.00175793 0.00267671 9.81272e-05 0.00125496 7.42358e-05 0.0016137 0.00102203 0.00175793 0.00119723 0.00214595 0.00125496 0.00254246 0.0016137 0.00324148 0.00175793 0.00267671 0.00214595 0.00328832 0.000709043 0.00132148 0.00102203 0.00175793 0.00150135 0.00187919 0.00203343 0.00240013 0.00132148 0.00206045 0.00175793 0.00267671 0.00187919 0.00236231 0.00240013 0.00290887 0.00102203 0.00175793 0.00119723 0.00214595 0.00203343 0.00240013 0.00248276 0.00287635 0.00175793 0.00267671 0.00214595 0.00328832 0.00240013 0.00290887 0.00287635 0.00344568 0.00185979 0.00235587 0.00254246 0.00341099 0.00206045 0.0024846 0.00267671 0.0033889 0.00235587 0.00282658 0.00341099 0.00422565 0.0024846 0.00288475 0.0033889 0.00406109 0.00254246 0.00341099 0.00324148 0.00450088 0.00267671 0.0033889 0.00328832 0.00430196 0.00341099 0.00422565 0.00450088 0.00567975 0.0033889 0.00406109 0.00430196 0.00526654 0.00206045 0.0024846 0.00267671 0.0033889 0.00236231 0.00271316 0.00290887 0.00346666 0.0024846 0.00288475 0.0033889 0.00406109 0.00271316 0.00304905 0.00346666 0.00400341 0.00267671 0.0033889 0.00328832 0.00430196 0.00290887 0.00346666 0.00344568 0.00421669 0.0033889 0.00406109 0.00430196 0.00526654 0.00346666 0.00400341 0.00421669 0.00496279 0.00150135 0.00187919 0.00203343 0.00240013 0.00190598 0.00224844 0.00277671 0.00303835 0.00187919 0.00236231 0.00240013 0.00290887 0.00224844 0.00271316 0.00303835 0.00346666 0.00203343 0.00240013 0.00248276 0.00287635 0.00277671 0.00303835 0.00357887 0.00379951 0.00240013 0.00290887 0.00287635 0.00344568 0.00303835 0.00346666 0.00379951 0.00421669 0.00190598 0.00224844 0.00277671 0.00303835 0.00228072 0.00259717 0.00348614 0.00365423 0.00224844 0.00271316 0.00303835 0.00346666 0.00259717 0.00304905 0.00365423 0.00400341 0.00277671 0.00303835 0.00357887 0.00379951 0.00348614 0.00365423 0.00463241 0.0046927 0.00303835 0.00346666 0.00379951 0.00421669 0.00365423 0.00400341 0.0046927 0.00496279 8.01598e-05 0.000898257 0.000709043 0.00132148 9.55127e-05 0.00115088 0.000973238 0.00163815 0.000898257 0.00185979 0.00132148 0.00206045 0.00115088 0.00235587 0.00163815 0.0024846 0.000709043 0.00132148 0.00150135 0.00187919 0.000973238 0.00163815 0.00190598 0.00224844 0.00132148 0.00206045 0.00187919 0.00236231 0.00163815 0.0024846 0.00224844 0.00271316 9.55127e-05 0.00115088 0.000973238 0.00163815 8.03244e-05 0.00137524 0.00113355 0.00191256 0.00115088 0.00235587 0.00163815 0.0024846 0.00137524 0.00282658 0.00191256 0.00288475 0.000973238 0.00163815 0.00190598 0.00224844 0.00113355 0.00191256 0.00228072 0.00259717 0.00163815 0.0024846 0.00224844 0.00271316 0.00191256 0.00288475 0.00259717 0.00304905 0.00295989 0.00248927 0.00435767 0.00354061 0.00303023 0.00263148 0.00416089 0.00350071 0.00248927 0.00199445 0.00354061 0.0026728 0.00263148 0.00221984 0.00350071 0.00280651 0.00435767 0.00354061 0.00581848 0.0046332 0.00416089 0.00350071 0.00534958 0.00441934 0.00354061 0.0026728 0.0046332 0.00337734 0.00350071 0.00280651 0.00441934 0.00343893 0.00303023 0.00263148 0.00416089 0.00350071 0.00321084 0.00286968 0.00414778 0.00360705 0.00263148 0.00221984 0.00350071 0.00280651 0.00286968 0.00252208 0.00360705 0.00303847 0.00416089 0.00350071 0.00534958 0.00441934 0.00414778 0.00360705 0.00512623 0.00439271 0.00350071 0.00280651 0.00441934 0.00343893 0.00360705 0.00303847 0.00439271 0.00360579 0.00199445 0.00103152 0.0026728 0.00138116 0.00221984 0.00147134 0.00280651 0.00183883 0.00103152 8.83352e-05 0.00138116 0.000101978 0.00147134 0.000874867 0.00183883 0.00105891 0.0026728 0.00138116 0.00337734 0.00174105 0.00280651 0.00183883 0.00343893 0.00227077 0.00138116 0.000101978 0.00174105 9.1034e-05 0.00183883 0.00105891 0.00227077 0.00138518 0.00221984 0.00147134 0.00280651 0.00183883 0.00252208 0.00201005 0.00303847 0.00245793 0.00147134 0.000874867 0.00183883 0.00105891 0.00201005 0.00165583 0.00245793 0.00208812 0.00280651 0.00183883 0.00343893 0.00227077 0.00303847 0.00245793 0.00360579 0.00296775 0.00183883 0.00105891 0.00227077 0.00138518 0.00245793 0.00208812 0.00296775 0.00262845 0.00321084 0.00286968 0.00414778 0.00360705 0.00270125 0.00235402 0.00369857 0.00309173 0.00286968 0.00252208 0.00360705 0.00303847 0.00235402 0.00201005 0.00309173 0.00245793 0.00414778 0.00360705 0.00512623 0.00439271 0.00369857 0.00309173 0.00475167 0.0038997 0.00360705 0.00303847 0.00439271 0.00360579 0.00309173 0.00245793 0.0038997 0.00296775 0.00270125 0.00235402 0.00369857 0.00309173 0.00243575 0.00203307 0.00356537 0.00283574 0.00235402 0.00201005 0.00309173 0.00245793 0.00203307 0.00165583 0.00283574 0.00208812 0.00369857 0.00309173 0.00475167 0.0038997 0.00356537 0.00283574 0.00478885 0.00375072 0.00309173 0.00245793 0.0038997 0.00296775 0.00283574 0.00208812 0.00375072 0.00262845 0.00295989 0.00248927 0.00303023 0.00263148 0.00150145 0.00127663 0.00200594 0.00173278 0.00248927 0.00199445 0.00263148 0.00221984 0.00127663 0.00103152 0.00173278 0.00147134 0.00303023 0.00263148 0.00321084 0.00286968 0.00200594 0.00173278 0.00270125 0.00235402 0.00263148 0.00221984 0.00286968 0.00252208 0.00173278 0.00147134 0.00235402 0.00201005 0.00150145 0.00127663 0.00200594 0.00173278 8.03244e-05 9.58847e-05 0.00122782 0.00101014 0.00127663 0.00103152 0.00173278 0.00147134 9.58847e-05 8.83352e-05 0.00101014 0.000874867 0.00200594 0.00173278 0.00270125 0.00235402 0.00122782 0.00101014 0.00243575 0.00203307 0.00173278 0.00147134 0.00235402 0.00201005 0.00101014 0.000874867 0.00203307 0.00165583 0.00295989 0.00303023 0.00435767 0.00416089 0.00330805 0.00346637 0.00466668 0.00460133 0.00303023 0.00321084 0.00416089 0.00414778 0.00346637 0.00367003 0.00460133 0.00461922 0.00435767 0.00416089 0.00581848 0.00534958 0.00466668 0.00460133 0.00607711 0.00577406 0.00416089 0.00414778 0.00534958 0.00512623 0.00460133 0.00461922 0.00577406 0.00559497 0.00330805 0.00346637 0.00466668 0.00460133 0.00379095 0.00395509 0.00512846 0.0050935 0.00346637 0.00367003 0.00460133 0.00461922 0.00395509 0.00413191 0.0050935 0.00508841 0.00466668 0.00460133 0.00607711 0.00577406 0.00512846 0.0050935 0.00648323 0.00624186 0.00460133 0.00461922 0.00577406 0.00559497 0.0050935 0.00508841 0.00624186 0.00604377 0.00321084 0.00270125 0.00414778 0.00369857 0.00367003 0.00332742 0.00461922 0.00436021 0.00270125 0.00243575 0.00369857 0.00356537 0.00332742 0.00316678 0.00436021 0.00432596 0.00414778 0.00369857 0.00512623 0.00475167 0.00461922 0.00436021 0.00559497 0.00541083 0.00369857 0.00356537 0.00475167 0.00478885 0.00436021 0.00432596 0.00541083 0.00550551 0.00367003 0.00332742 0.00461922 0.00436021 0.00413191 0.0039344 0.00508841 0.00499115 0.00332742 0.00316678 0.00436021 0.00432596 0.0039344 0.00387742 0.00499115 0.0050599 0.00461922 0.00436021 0.00559497 0.00541083 0.00508841 0.00499115 0.00604377 0.00603144 0.00436021 0.00432596 0.00541083 0.00550551 0.00499115 0.0050599 0.00603144 0.00621743 0.00379095 0.00395509 0.00512846 0.0050935 0.00348197 0.00369965 0.00498197 0.00497242 0.00395509 0.00413191 0.0050935 0.00508841 0.00369965 0.0039344 0.00497242 0.00499115 0.00512846 0.0050935 0.00648323 0.00624186 0.00498197 0.00497242 0.0064023 0.00619957 0.0050935 0.00508841 0.00624186 0.00604377 0.00497242 0.00499115 0.00619957 0.00603144 0.00348197 0.00369965 0.00498197 0.00497242 0.00341268 0.00362257 0.00514408 0.00507519 0.00369965 0.0039344 0.00497242 0.00499115 0.00362257 0.00387742 0.00507519 0.0050599 0.00498197 0.00497242 0.0064023 0.00619957 0.00514408 0.00507519 0.00672648 0.00643526 0.00497242 0.00499115 0.00619957 0.00603144 0.00507519 0.0050599 0.00643526 0.00621743 0.00295989 0.00303023 0.00330805 0.00346637 0.00150145 0.00200594 0.00241216 0.00284639 0.00303023 0.00321084 0.00346637 0.00367003 0.00200594 0.00270125 0.00284639 0.00332742 0.00330805 0.00346637 0.00379095 0.00395509 0.00241216 0.00284639 0.00348197 0.00369965 0.00346637 0.00367003 0.00395509 0.00413191 0.00284639 0.00332742 0.00369965 0.0039344 0.00150145 0.00200594 0.00241216 0.00284639 8.03244e-05 0.00122782 0.00179722 0.00245493 0.00200594 0.00270125 0.00284639 0.00332742 0.00122782 0.00243575 0.00245493 0.00316678 0.00241216 0.00284639 0.00348197 0.00369965 0.00179722 0.00245493 0.00341268 0.00362257 0.00284639 0.00332742 0.00369965 0.0039344 0.00245493 0.00316678 0.00362257 0.00387742 0.00285716 0.00330287 0.0042683 0.00459234 0.0027671 0.00333395 0.00394525 0.00446033 0.00330287 0.00389245 0.00459234 0.00513887 0.00333395 0.00393937 0.00446033 0.00503219 0.0042683 0.00459234 0.00572799 0.00587902 0.00394525 0.00446033 0.00516655 0.00559905 0.00459234 0.00513887 0.00587902 0.00635835 0.00446033 0.00503219 0.00