# vtk DataFile Version 3.0
#This file was generated by the deal.II library on 2025/4/19 at 2:13:44
ASCII
DATASET UNSTRUCTURED_GRID

POINTS 8192 double
-0.298832 0.0209096 -0.3326
-0.407254 0.0192015 -0.276879
-0.474104 0.0108076 -0.507872
-0.584636 0.0109754 -0.402473
-0.359646 -0.096431 -0.278586
-0.453163 -0.0848955 -0.236913
-0.5366 -0.144947 -0.410611
-0.62244 -0.123633 -0.334759
-0.407254 0.0192015 -0.276879
-0.510825 0.0237879 -0.21184
-0.584636 0.0109754 -0.402473
-0.685652 0.0180865 -0.287596
-0.453163 -0.0848955 -0.236913
-0.542282 -0.0676083 -0.188191
-0.62244 -0.123633 -0.334759
-0.701166 -0.096897 -0.252617
-0.474104 0.0108076 -0.507872
-0.584636 0.0109754 -0.402473
-0.635288 0.0260102 -0.681074
-0.749766 0.0231343 -0.522003
-0.5366 -0.144947 -0.410611
-0.62244 -0.123633 -0.334759
-0.702042 -0.176668 -0.537235
-0.779905 -0.148055 -0.425221
-0.584636 0.0109754 -0.402473
-0.685652 0.0180865 -0.287596
-0.749766 0.0231343 -0.522003
-0.851444 0.0279482 -0.354655
-0.62244 -0.123633 -0.334759
-0.701166 -0.096897 -0.252617
-0.779905 -0.148055 -0.425221
-0.850406 -0.114904 -0.309033
-0.359646 -0.096431 -0.278586
-0.453163 -0.0848955 -0.236913
-0.5366 -0.144947 -0.410611
-0.62244 -0.123633 -0.334759
-0.411138 -0.213242 -0.213191
-0.490447 -0.188762 -0.188711
-0.584929 -0.297656 -0.297605
-0.648543 -0.256679 -0.256628
-0.453163 -0.0848955 -0.236913
-0.542282 -0.0676083 -0.188191
-0.62244 -0.123633 -0.334759
-0.701166 -0.096897 -0.252617
-0.490447 -0.188762 -0.188711
-0.566695 -0.159585 -0.159524
-0.648543 -0.256679 -0.256628
-0.70767 -0.211922 -0.21186
-0.5366 -0.144947 -0.410611
-0.62244 -0.123633 -0.334759
-0.702042 -0.176668 -0.537235
-0.779905 -0.148055 -0.425221
-0.584929 -0.297656 -0.297605
-0.648543 -0.256679 -0.256628
-0.748413 -0.372518 -0.372462
-0.794992 -0.315769 -0.315714
-0.62244 -0.123633 -0.334759
-0.701166 -0.096897 -0.252617
-0.779905 -0.148055 -0.425221
-0.850406 -0.114904 -0.309033
-0.648543 -0.256679 -0.256628
-0.70767 -0.211922 -0.21186
-0.794992 -0.315769 -0.315714
-0.838628 -0.257068 -0.256998
-0.510825 0.0237879 -0.21184
-0.479949 0.0224783 -0.0908512
-0.685652 0.0180865 -0.287596
-0.692431 0.0144659 -0.133964
-0.542282 -0.0676083 -0.188191
-0.51347 -0.0809749 -0.0808967
-0.701166 -0.096897 -0.252617
-0.700662 -0.117463 -0.117384
-0.479949 0.0224783 -0.0908512
-0.44873 0.0243433 0.0243795
-0.692431 0.0144659 -0.133964
-0.694415 0.014402 0.0144382
-0.51347 -0.0809749 -0.0808967
-0.485611 -0.0915075 0.0219363
-0.700662 -0.117463 -0.117384
-0.698093 -0.13462 0.0139239
-0.685652 0.0180865 -0.287596
-0.692431 0.0144659 -0.133964
-0.851444 0.0279482 -0.354655
-0.899319 0.0255169 -0.161701
-0.701166 -0.096897 -0.252617
-0.700662 -0.117463 -0.117384
-0.850406 -0.114904 -0.309033
-0.881157 -0.141065 -0.140972
-0.692431 0.0144659 -0.133964
-0.694415 0.014402 0.0144382
-0.899319 0.0255169 -0.161701
-0.934903 0.0288551 0.0288786
-0.700662 -0.117463 -0.117384
-0.698093 -0.13462 0.0139239
-0.881157 -0.141065 -0.140972
-0.904305 -0.161785 0.0255488
-0.542282 -0.0676083 -0.188191
-0.51347 -0.0809749 -0.0808967
-0.701166 -0.096897 -0.252617
-0.700662 -0.117463 -0.117384
-0.566695 -0.159585 -0.159524
-0.538987 -0.18651 -0.0658018
-0.70767 -0.211922 -0.21186
-0.697871 -0.250936 -0.0950905
-0.51347 -0.0809749 -0.0808967
-0.485611 -0.0915075 0.0219363
-0.700662 -0.117463 -0.117384
-0.698093 -0.13462 0.0139239
-0.538987 -0.18651 -0.0658018
-0.512155 -0.210745 0.024968
-0.697871 -0.250936 -0.0950905
-0.686982 -0.286501 0.0192666
-0.701166 -0.096897 -0.252617
-0.700662 -0.117463 -0.117384
-0.850406 -0.114904 -0.309033
-0.881157 -0.141065 -0.140972
-0.70767 -0.211922 -0.21186
-0.697871 -0.250936 -0.0950905
-0.838628 -0.257068 -0.256998
-0.84881 -0.308085 -0.11382
-0.700662 -0.117463 -0.117384
-0.698093 -0.13462 0.0139239
-0.881157 -0.141065 -0.140972
-0.904305 -0.161785 0.0255488
-0.697871 -0.250936 -0.0950905
-0.686982 -0.286501 0.0192666
-0.84881 -0.308085 -0.11382
-0.853856 -0.353786 0.028892
-0.411138 -0.213242 -0.213191
-0.490447 -0.188762 -0.188711
-0.584929 -0.297656 -0.297605
-0.648543 -0.256679 -0.256628
-0.354168 -0.276951 -0.0946894
-0.447684 -0.235279 -0.0831539
-0.531121 -0.408976 -0.143205
-0.616961 -0.333124 -0.121891
-0.490447 -0.188762 -0.188711
-0.566695 -0.159585 -0.159524
-0.648543 -0.256679 -0.256628
-0.70767 -0.211922 -0.21186
-0.447684 -0.235279 -0.0831539
-0.538987 -0.18651 -0.0658018
-0.616961 -0.333124 -0.121891
-0.697871 -0.250936 -0.0950905
-0.584929 -0.297656 -0.297605
-0.648543 -0.256679 -0.256628
-0.748413 -0.372518 -0.372462
-0.794992 -0.315769 -0.315714
-0.531121 -0.408976 -0.143205
-0.616961 -0.333124 -0.121891
-0.697294 -0.536104 -0.175407
-0.775157 -0.42409 -0.146794
-0.648543 -0.256679 -0.256628
-0.70767 -0.211922 -0.21186
-0.794992 -0.315769 -0.315714
-0.838628 -0.257068 -0.256998
-0.616961 -0.333124 -0.121891
-0.697871 -0.250936 -0.0950905
-0.775157 -0.42409 -0.146794
-0.84881 -0.308085 -0.11382
-0.354168 -0.276951 -0.0946894
-0.447684 -0.235279 -0.0831539
-0.531121 -0.408976 -0.143205
-0.616961 -0.333124 -0.121891
-0.298915 -0.332464 0.0211428
-0.407337 -0.276743 0.0194348
-0.474187 -0.507736 0.0110409
-0.584719 -0.402337 0.0112087
-0.447684 -0.235279 -0.0831539
-0.538987 -0.18651 -0.0658018
-0.616961 -0.333124 -0.121891
-0.697871 -0.250936 -0.0950905
-0.407337 -0.276743 0.0194348
-0.512155 -0.210745 0.024968
-0.584719 -0.402337 0.0112087
-0.686982 -0.286501 0.0192666
-0.531121 -0.408976 -0.143205
-0.616961 -0.333124 -0.121891
-0.697294 -0.536104 -0.175407
-0.775157 -0.42409 -0.146794
-0.474187 -0.507736 0.0110409
-0.584719 -0.402337 0.0112087
-0.635369 -0.680936 0.0262989
-0.749848 -0.521864 0.0234229
-0.616961 -0.333124 -0.121891
-0.697871 -0.250936 -0.0950905
-0.775157 -0.42409 -0.146794
-0.84881 -0.308085 -0.11382
-0.584719 -0.402337 0.0112087
-0.686982 -0.286501 0.0192666
-0.749848 -0.521864 0.0234229
-0.853856 -0.353786 0.028892
-0.298832 0.0209096 -0.3326
-0.407254 0.0192015 -0.276879
-0.359646 -0.096431 -0.278586
-0.453163 -0.0848955 -0.236913
-0.135254 0.00131013 -0.158281
-0.314815 0.00163795 -0.136536
-0.25553 -0.139064 -0.139021
-0.393125 -0.118331 -0.118288
-0.407254 0.0192015 -0.276879
-0.510825 0.0237879 -0.21184
-0.453163 -0.0848955 -0.236913
-0.542282 -0.0676083 -0.188191
-0.314815 0.00163795 -0.136536
-0.479949 0.0224783 -0.0908512
-0.393125 -0.118331 -0.118288
-0.51347 -0.0809749 -0.0808967
-0.359646 -0.096431 -0.278586
-0.453163 -0.0848955 -0.236913
-0.411138 -0.213242 -0.213191
-0.490447 -0.188762 -0.188711
-0.25553 -0.139064 -0.139021
-0.393125 -0.118331 -0.118288
-0.354168 -0.276951 -0.0946894
-0.447684 -0.235279 -0.0831539
-0.453163 -0.0848955 -0.236913
-0.542282 -0.0676083 -0.188191
-0.490447 -0.188762 -0.188711
-0.566695 -0.159585 -0.159524
-0.393125 -0.118331 -0.118288
-0.51347 -0.0809749 -0.0808967
-0.447684 -0.235279 -0.0831539
-0.538987 -0.18651 -0.0658018
-0.135254 0.00131013 -0.158281
-0.314815 0.00163795 -0.136536
-0.25553 -0.139064 -0.139021
-0.393125 -0.118331 -0.118288
0.0249134 0.0108877 0.0109057
-0.218883 -0.00173979 -0.0017218
-0.14922 -0.163246 -0.00359422
-0.328781 -0.141501 -0.00326639
-0.314815 0.00163795 -0.136536
-0.479949 0.0224783 -0.0908512
-0.393125 -0.118331 -0.118288
-0.51347 -0.0809749 -0.0808967
-0.218883 -0.00173979 -0.0017218
-0.44873 0.0243433 0.0243795
-0.328781 -0.141501 -0.00326639
-0.485611 -0.0915075 0.0219363
-0.25553 -0.139064 -0.139021
-0.393125 -0.118331 -0.118288
-0.354168 -0.276951 -0.0946894
-0.447684 -0.235279 -0.0831539
-0.14922 -0.163246 -0.00359422
-0.328781 -0.141501 -0.00326639
-0.298915 -0.332464 0.0211428
-0.407337 -0.276743 0.0194348
-0.393125 -0.118331 -0.118288
-0.51347 -0.0809749 -0.0808967
-0.447684 -0.235279 -0.0831539
-0.538987 -0.18651 -0.0658018
-0.328781 -0.141501 -0.00326639
-0.485611 -0.0915075 0.0219363
-0.407337 -0.276743 0.0194348
-0.512155 -0.210745 0.024968
0.298685 -0.021263 0.332245
0.356314 0.096398 0.264011
0.48255 -0.0494408 0.516111
0.541894 0.115995 0.381049
0.405124 -0.0255141 0.26978
0.448712 0.0811353 0.221712
0.586785 -0.0513789 0.396483
0.62339 0.0972159 0.307865
0.356314 0.096398 0.264011
0.410657 0.212864 0.212815
0.541894 0.115995 0.381049
0.6003 0.289428 0.28935
0.448712 0.0811353 0.221712
0.487831 0.185641 0.185589
0.62339 0.0972159 0.307865
0.656866 0.246874 0.246807
0.48255 -0.0494408 0.516111
0.541894 0.115995 0.381049
0.635726 -0.0262774 0.680805
0.686424 0.16704 0.493388
0.586785 -0.0513789 0.396483
0.62339 0.0972159 0.307865
0.736491 -0.0424249 0.518192
0.760202 0.135424 0.395436
0.541894 0.115995 0.381049
0.6003 0.289428 0.28935
0.686424 0.16704 0.493388
0.739832 0.380945 0.380834
0.62339 0.0972159 0.307865
0.656866 0.246874 0.246807
0.760202 0.135424 0.395436
0.783242 0.319435 0.319341
0.405124 -0.0255141 0.26978
0.448712 0.0811353 0.221712
0.586785 -0.0513789 0.396483
0.62339 0.0972159 0.307865
0.510468 -0.0241289 0.211492
0.53993 0.0689663 0.181663
0.695339 -0.0379464 0.279974
0.708059 0.0842104 0.234645
0.448712 0.0811353 0.221712
0.487831 0.185641 0.185589
0.62339 0.0972159 0.307865
0.656866 0.246874 0.246807
0.53993 0.0689663 0.181663
0.565211 0.160107 0.160043
0.708059 0.0842104 0.234645
0.717523 0.204486 0.20442
0.586785 -0.0513789 0.396483
0.62339 0.0972159 0.307865
0.736491 -0.0424249 0.518192
0.760202 0.135424 0.395436
0.695339 -0.0379464 0.279974
0.708059 0.0842104 0.234645
0.85146 -0.0282108 0.354367
0.845104 0.115459 0.29445
0.62339 0.0972159 0.307865
0.656866 0.246874 0.246807
0.760202 0.135424 0.395436
0.783242 0.319435 0.319341
0.708059 0.0842104 0.234645
0.717523 0.204486 0.20442
0.845104 0.115459 0.29445
0.837287 0.258306 0.25821
0.410657 0.212864 0.212815
0.350506 0.262344 0.0946333
0.6003 0.289428 0.28935
0.536087 0.3794 0.114218
0.487831 0.185641 0.185589
0.442904 0.220047 0.0793695
0.656866 0.246874 0.246807
0.617582 0.306209 0.0954428
0.350506 0.262344 0.0946333
0.298775 0.332098 -0.0214986
0.536087 0.3794 0.114218
0.48264 0.515963 -0.0496764
0.442904 0.220047 0.0793695
0.405215 0.269633 -0.0257497
0.617582 0.306209 0.0954428
[...]
POINT_DATA 8192
SCALARS D_0 double 1
LOOKUP_TABLE default
0.00260919 0.00314935 0.00410092 0.0045105 0.00313664 0.0035695 0.00461954 0.0048867 0.00314935 0.00371897 0.0045105 0.00496441 0.0035695 0.00401797 0.0048867 0.00517871 0.00410092 0.0045105 0.00540841 0.00572189 0.00461954 0.0048867 0.00595571 0.00607057 0.0045105 0.00496441 0.00572189 0.00610213 0.0048867 0.00517871 0.00607057 0.00623836 0.00313664 0.0035695 0.00461954 0.0048867 0.00356965 0.00391562 0.00499602 0.00516241 0.0035695 0.00401797 0.0048867 0.00517871 0.00391562 0.00427432 0.00516241 0.00534198 0.00461954 0.0048867 0.00595571 0.00607057 0.00499602 0.00516241 0.00630431 0.00629564 0.0048867 0.00517871 0.00607057 0.00623836 0.00516241 0.00534198 0.00629564 0.00631813 0.00371897 0.0034024 0.00496441 0.0048723 0.00401797 0.00370606 0.00517871 0.00502423 0.0034024 0.00315945 0.0048723 0.00484377 0.00370606 0.00343678 0.00502423 0.00490445 0.00496441 0.0048723 0.00610213 0.00626561 0.00517871 0.00502423 0.00623836 0.00625536 0.0048723 0.00484377 0.00626561 0.0064762 0.00502423 0.00490445 0.00625536 0.00628982 0.00401797 0.00370606 0.00517871 0.00502423 0.00427432 0.00398568 0.00534198 0.00514431 0.00370606 0.00343678 0.00502423 0.00490445 0.00398568 0.00371368 0.00514431 0.00495373 0.00517871 0.00502423 0.00623836 0.00625536 0.00534198 0.00514431 0.00631813 0.00621503 0.00502423 0.00490445 0.00625536 0.00628982 0.00514431 0.00495373 0.00621503 0.0060969 0.00356965 0.00391562 0.00499602 0.00516241 0.0030898 0.00352307 0.00456751 0.00483524 0.00391562 0.00427432 0.00516241 0.00534198 0.00352307 0.00398568 0.00483524 0.00514431 0.00499602 0.00516241 0.00630431 0.00629564 0.00456751 0.00483524 0.00590435 0.00602188 0.00516241 0.00534198 0.00629564 0.00631813 0.00483524 0.00514431 0.00602188 0.00621503 0.0030898 0.00352307 0.00456751 0.00483524 0.00259469 0.0031362 0.00407873 0.00449038 0.00352307 0.00398568 0.00483524 0.00514431 0.0031362 0.00371368 0.00449038 0.00495373 0.00456751 0.00483524 0.00590435 0.00602188 0.00407873 0.00449038 0.00537924 0.00569655 0.00483524 0.00514431 0.00602188 0.00621503 0.00449038 0.00495373 0.00569655 0.0060969 0.00260919 0.00314935 0.00313664 0.0035695 0.00122057 0.00233344 0.00226198 0.00302022 0.00314935 0.00371897 0.0035695 0.00401797 0.00233344 0.0034024 0.00302022 0.00370606 0.00313664 0.0035695 0.00356965 0.00391562 0.00226198 0.00302022 0.0030898 0.00352307 0.0035695 0.00401797 0.00391562 0.00427432 0.00302022 0.00370606 0.00352307 0.00398568 0.00122057 0.00233344 0.00226198 0.00302022 0.000238267 0.00155391 0.00132352 0.00243695 0.00233344 0.0034024 0.00302022 0.00370606 0.00155391 0.00315945 0.00243695 0.00343678 0.00226198 0.00302022 0.0030898 0.00352307 0.00132352 0.00243695 0.00259469 0.0031362 0.00302022 0.00370606 0.00352307 0.00398568 0.00243695 0.00343678 0.0031362 0.00371368 0.00264822 0.00311789 0.00410055 0.0045333 0.00311779 0.00351789 0.00444146 0.00480103 0.00311789 0.00360609 0.0045333 0.00508341 0.00351789 0.00390865 0.00480103 0.00519866 0.00410055 0.0045333 0.00544792 0.00576995 0.00444146 0.00480103 0.00560531 0.00588953 0.0045333 0.00508341 0.00576995 0.00636054 0.00480103 0.00519866 0.00588953 0.00628672 0.00311779 0.00351789 0.00444146 0.00480103 0.00370113 0.00399213 0.00498008 0.00517784 0.00351789 0.00390865 0.00480103 0.00519866 0.00399213 0.00427459 0.00517784 0.00539249 0.00444146 0.00480103 0.00560531 0.00588953 0.00498008 0.00517784 0.00609282 0.0061942 0.00480103 0.00519866 0.00588953 0.00628672 0.00517784 0.00539249 0.0061942 0.00634304 0.00360609 0.00306913 0.00508341 0.00447898 0.00390865 0.00346927 0.00519866 0.00474869 0.00306913 0.0026325 0.00447898 0.00407503 0.00346927 0.00310535 0.00474869 0.00442128 0.00508341 0.00447898 0.00636054 0.00572122 0.00519866 0.00474869 0.00628672 0.00584169 0.00447898 0.00407503 0.00572122 0.0054146 0.00474869 0.00442128 0.00584169 0.00557949 0.00390865 0.00346927 0.00519866 0.00474869 0.00427459 0.00395356 0.00539249 0.00513802 0.00346927 0.00310535 0.00474869 0.00442128 0.00395356 0.00369142 0.00513802 0.00496667 0.00519866 0.00474869 0.00628672 0.00584169 0.00539249 0.00513802 0.00634304 0.00615789 0.00474869 0.00442128 0.00584169 0.00557949 0.00513802 0.00496667 0.00615789 0.00607789 0.00370113 0.00399213 0.00498008 0.00517784 0.00334008 0.00364329 0.00482378 0.00495775 0.00399213 0.00427459 0.00517784 0.00539249 0.00364329 0.00395356 0.00495775 0.00513802 0.00498008 0.00517784 0.00609282 0.0061942 0.00482378 0.00495775 0.0061474 0.00611023 0.00517784 0.00539249 0.0061942 0.00634304 0.00495775 0.00513802 0.00611023 0.00615789 0.00334008 0.00364329 0.00482378 0.00495775 0.00309674 0.00337598 0.00484647 0.00485891 0.00364329 0.00395356 0.00495775 0.00513802 0.00337598 0.00369142 0.00485891 0.00496667 0.00482378 0.00495775 0.0061474 0.00611023 0.00484647 0.00485891 0.00642466 0.00617601 0.00495775 0.00513802 0.00611023 0.00615789 0.00485891 0.00496667 0.00617601 0.00607789 0.00264822 0.00311789 0.00311779 0.00351789 0.00122358 0.00220184 0.00229892 0.0029432 0.00311789 0.00360609 0.00351789 0.00390865 0.00220184 0.00306913 0.0029432 0.00346927 0.00311779 0.00351789 0.00370113 0.00399213 0.00229892 0.0029432 0.00334008 0.00364329 0.00351789 0.00390865 0.00399213 0.00427459 0.0029432 0.00346927 0.00364329 0.00395356 0.00122358 0.00220184 0.00229892 0.0029432 0.000238267 0.00132262 0.00158826 0.00239992 0.00220184 0.00306913 0.0029432 0.00346927 0.00132262 0.0026325 0.00239992 0.00310535 0.00229892 0.0029432 0.00334008 0.00364329 0.00158826 0.00239992 0.00309674 0.00337598 0.0029432 0.00346927 0.00364329 0.00395356 0.00239992 0.00310535 0.00337598 0.00369142 0.00247601 0.00274202 0.00364099 0.00378184 0.00321181 0.00336876 0.00441833 0.00445617 0.00274202 0.00329028 0.00378184 0.00428624 0.00336876 0.0037502 0.00445617 0.00476223 0.00364099 0.00378184 0.00493865 0.00492823 0.00441833 0.00445617 0.00568143 0.00560448 0.00378184 0.00428624 0.00492823 0.00537494 0.00445617 0.00476223 0.00560448 0.00584926 0.00321181 0.00336876 0.00441833 0.00445617 0.00393578 0.00399642 0.00518405 0.00511932 0.00336876 0.0037502 0.00445617 0.00476223 0.00399642 0.00423641 0.00511932 0.00525681 0.00441833 0.00445617 0.00568143 0.00560448 0.00518405 0.00511932 0.00641625 0.00625448 0.00445617 0.00476223 0.00560448 0.00584926 0.00511932 0.00525681 0.00625448 0.00633145 0.00329028 0.00310328 0.00428624 0.00430169 0.0037502 0.00354046 0.00476223 0.00473923 0.00310328 0.00301484 0.00430169 0.00447857 0.00354046 0.00336234 0.00473923 0.00477914 0.00428624 0.00430169 0.00537494 0.0056 0.00476223 0.00473923 0.00584926 0.00603135 0.00430169 0.00447857 0.0056 0.00604472 0.00473923 0.00477914 0.00603135 0.00629749 0.0037502 0.00354046 0.00476223 0.00473923 0.00423641 0.00405801 0.00525681 0.00527265 0.00354046 0.00336234 0.00473923 0.00477914 0.00405801 0.00388711 0.00527265 0.0053031 0.00476223 0.00473923 0.00584926 0.00603135 0.00525681 0.00527265 0.00633145 0.00654573 0.00473923 0.00477914 0.00603135 0.00629749 0.00527265 0.0053031 0.00654573 0.00678029 0.00393578 0.00399642 0.00518405 0.00511932 0.00367589 0.00375156 0.00519601 0.00510288 0.00399642 0.00423641 0.00511932 0.00525681 0.00375156 0.00405801 0.00510288 0.00527265 0.00518405 0.00511932 0.00641625 0.00625448 0.00519601 0.00510288 0.00665097 0.00644552 0.00511932 0.00525681 0.00625448 0.00633145 0.00510288 0.00527265 0.00644552 0.00654573 0.00367589 0.00375156 0.00519601 0.00510288 0.00346381 0.00353132 0.00527464 0.00511695 0.00375156 0.00405801 0.00510288 0.00527265 0.00353132 0.00388711 0.00511695 0.0053031 0.00519601 0.00510288 0.00665097 0.00644552 0.00527464 0.00511695 0.00695625 0.00666828 0.00510288 0.00527265 0.00644552 0.00654573 0.00511695 0.0053031 0.00666828 0.00678029 0.00247601 0.00274202 0.00321181 0.00336876 0.00125802 0.00203877 0.00248592 0.00286185 0.00274202 0.00329028 0.00336876 0.0037502 0.00203877 0.00310328 0.00286185 0.00354046 0.00321181 0.00336876 0.00393578 0.00399642 0.00248592 0.00286185 0.00367589 0.00375156 0.00336876 0.0037502 0.00399642 0.00423641 0.00286185 0.00354046 0.00375156 0.00405801 0.00125802 0.00203877 0.00248592 0.00286185 0.000238267 0.00155234 0.00182932 0.00241447 0.00203877 0.00310328 0.00286185 0.00354046 0.00155234 0.00301484 0.00241447 0.00336234 0.00248592 0.00286185 0.00367589 0.00375156 0.00182932 0.00241447 0.00346381 0.00353132 0.00286185 0.00354046 0.00375156 0.00405801 0.00241447 0.00336234 0.00353132 0.00388711 0.00232367 0.00305323 0.00356902 0.00430094 0.00264048 0.00324279 0.00374236 0.00436143 0.00305323 0.00378063 0.00430094 0.00501088 0.00324279 0.00387539 0.00436143 0.00499313 0.00356902 0.00430094 0.00478273 0.00555094 0.00374236 0.00436143 0.00487655 0.00551537 0.00430094 0.00501088 0.00555094 0.00626043 0.00436143 0.00499313 0.00551537 0.00614612 0.00264048 0.00324279 0.00374236 0.00436143 0.00313115 0.00357295 0.00414416 0.00459501 0.00324279 0.00387539 0.00436143 0.00499313 0.00357295 0.00407336 0.00459501 0.00509347 0.00374236 0.00436143 0.00487655 0.00551537 0.00414416 0.00459501 0.00521613 0.00567108 0.00436143 0.00499313 0.00551537 0.00614612 0.00459501 0.00509347 0.00567108 0.00617016 0.00378063 0.00356148 0.00501088 0.00504402 0.00387539 0.00366866 0.00499313 0.00500418 0.00356148 0.00330712 0.00504402 0.00502154 0.00366866 0.00344358 0.00500418 0.00498709 0.00501088 0.00504402 0.00626043 0.0065728 0.00499313 0.00500418 0.00614612 0.00640169 0.00504402 0.00502154 0.0065728 0.00679294 0.00500418 0.00498709 0.00640169 0.00661925 0.00387539 0.00366866 0.00499313 0.00500418 0.00407336 0.00389673 0.00509347 0.00510897 0.00366866 0.00344358 0.00500418 0.00498709 0.00389673 0.00372082 0.00510897 0.00511791 0.00499313 0.00500418 0.00614612 0.00640169 0.00509347 0.00510897 0.00617016 0.0063963 0.00500418 0.00498709 0.00640169 0.00661925 0.00510897 0.00511791 0.0063963 0.00661634 0.00313115 0.00357295 0.00414416 0.00459501 0.0029587 0.00336688 0.00420326 0.00459091 0.00357295 0.00407336 0.00459501 0.00509347 0.00336688 0.00389673 0.00459091 0.00510897 0.00414416 0.00459501 0.00521613 0.00567108 0.00420326 0.00459091 0.00552481 0.00588986 0.00459501 0.00509347 0.00567108 0.00617016 0.00459091 0.00510897 0.00588986 0.0063963 0.0029587 0.00336688 0.00420326 0.00459091 0.00288144 0.00318186 0.00434829 0.0046051 0.00336688 0.00389673 0.00459091 0.00510897 0.00318186 0.00372082 0.0046051 0.00511791 0.00420326 0.00459091 0.00552481 0.00588986 0.00434829 0.0046051 0.00591225 0.00611882 0.00459091 0.00510897 0.00588986 0.0063963 0.0046051 0.00511791 0.00611882 0.00661634 0.00232367 0.00305323 0.00264048 0.00324279 0.00116499 0.00235174 0.00193734 0.00274335 0.00305323 0.00378063 0.00324279 0.00387539 0.00235174 0.00356148 0.00274335 0.00366866 0.00264048 0.00324279 0.00313115 0.00357295 0.00193734 0.00274335 0.0029587 0.00336688 0.00324279 0.00387539 0.00357295 0.00407336 0.00274335 0.00366866 0.00336688 0.00389673 0.00116499 0.00235174 0.00193734 0.00274335 0.000238267 0.0016058 0.00141171 0.0022559 0.00235174 0.00356148 0.00274335 0.00366866 0.0016058 0.00330712 0.0022559 0.00344358 0.00193734 0.00274335 0.0029587 0.00336688 0.00141171 0.0022559 0.00288144 0.00318186 0.00274335 0.00366866 0.00336688 0.00389673 0.0022559 0.00344358 0.00318186 0.00372082 5.5563e-05 0.000926006 8.56081e-05 0.00129768 0.000736519 0.00133297 0.00105758 0.00179366 0.000926006 0.00189792 0.00129768 0.0026184 0.00133297 0.00209919 0.00179366 0.0027543 8.56081e-05 0.00129768 4.55718e-05 0.00169051 0.00105758 0.00179366 0.00125164 0.00222604 0.00129768 0.0026184 0.00169051 0.00337448 0.00179366 0.0027543 0.00222604 0.00342316 0.000736519 0.00133297 0.00105758 0.00179366 0.00153144 0.001908 0.00207944 0.00245593 0.00133297 0.00209919 0.00179366 0.0027543 0.001908 0.00242581 0.00245593 0.00300982 0.00105758 0.00179366 0.00125164 0.00222604 0.00207944 0.00245593 0.0025609 0.00298468 0.00179366 0.0027543 0.00222604 0.00342316 0.00245593 0.00300982 0.00298468 0.00360634 0.00189792 0.00238821 0.0026184 0.00349885 0.00209919 0.00252541 0.0027543 0.00348174 0.00238821 0.00286374 0.00349885 0.00433553 0.00252541 0.00292887 0.00348174 0.00417669 0.0026184 0.00349885 0.00337448 0.00466897 0.0027543 0.00348174 0.00342316 0.00447443 0.00349885 0.00433553 0.00466897 0.00589456 0.00348174 0.00417669 0.00447443 0.0054866 0.00209919 0.00252541 0.0027543 0.00348174 0.00242581 0.00278727 0.00300982 0.00358675 0.00252541 0.00292887 0.00348174 0.00417669 0.00278727 0.00313086 0.00358675 0.00414659 0.0027543 0.00348174 0.00342316 0.00447443 0.00300982 0.00358675 0.00360634 0.00441157 0.00348174 0.00417669 0.00447443 0.0054866 0.00358675 0.00414659 0.00441157 0.00521251 0.00153144 0.001908 0.00207944 0.00245593 0.00194002 0.00228192 0.00283375 0.0031048 0.001908 0.00242581 0.00245593 0.00300982 0.00228192 0.00278727 0.0031048 0.00358675 0.00207944 0.00245593 0.0025609 0.00298468 0.00283375 0.0031048 0.00367782 0.00393297 0.00245593 0.00300982 0.00298468 0.00360634 0.0031048 0.00358675 0.00393297 0.00441157 0.00194002 0.00228192 0.00283375 0.0031048 0.00231789 0.00263381 0.00356227 0.0037366 0.00228192 0.00278727 0.0031048 0.00358675 0.00263381 0.00313086 0.0037366 0.00414659 0.00283375 0.0031048 0.00367782 0.00393297 0.00356227 0.0037366 0.0047791 0.00487147 0.0031048 0.00358675 0.00393297 0.00441157 0.0037366 0.00414659 0.00487147 0.00521251 5.5563e-05 0.000926006 0.000736519 0.00133297 9.86118e-05 0.00116117 0.00100907 0.00163653 0.000926006 0.00189792 0.00133297 0.00209919 0.00116117 0.00238821 0.00163653 0.00252541 0.000736519 0.00133297 0.00153144 0.001908 0.00100907 0.00163653 0.00194002 0.00228192 0.00133297 0.00209919 0.001908 0.00242581 0.00163653 0.00252541 0.00228192 0.00278727 9.86118e-05 0.00116117 0.00100907 0.00163653 0.000238267 0.00138685 0.0011743 0.00190559 0.00116117 0.00238821 0.00163653 0.00252541 0.00138685 0.00286374 0.00190559 0.00292887 0.00100907 0.00163653 0.00194002 0.00228192 0.0011743 0.00190559 0.00231789 0.00263381 0.00163653 0.00252541 0.00228192 0.00278727 0.00190559 0.00292887 0.00263381 0.00313086 0.0029947 0.00252329 0.0044632 0.00363033 0.00306892 0.00267697 0.00426755 0.00359657 0.00252329 0.00203165 0.00363033 0.00275136 0.00267697 0.00226926 0.00359657 0.00289404 0.0044632 0.00363033 0.00602373 0.00480226 0.00426755 0.00359657 0.0055586 0.00459876 0.00363033 0.00275136 0.00480226 0.00351227 0.00359657 0.00289404 0.00459876 0.00358597 0.00306892 0.00267697 0.00426755 0.00359657 0.0032851 0.0029506 0.00428321 0.00373408 0.00267697 0.00226926 0.00359657 0.00289404 0.0029506 0.00259768 0.00373408 0.0031513 0.00426755 0.00359657 0.0055586 0.00459876 0.00428321 0.00373408 0.00536653 0.00460186 0.00359657 0.00289404 0.00459876 0.00358597 0.00373408 0.0031513 0.00460186 0.0037811 0.00203165 0.00105442 0.00275136 0.00142677 0.00226926 0.00150302 0.00289404 0.00189714 0.00105442 0.000107029 0.00142677 0.000125173 0.00150302 0.000895465 0.00189714 0.00108824 0.00275136 0.00142677 0.00351227 0.00181629 0.00289404 0.00189714 0.00358597 0.00238021 0.00142677 0.000125173 0.00181629 0.000117242 0.00189714 0.00108824 0.00238021 0.00144283 0.00226926 0.00150302 0.00289404 0.00189714 0.00259768 0.00206177 0.0031513 0.00253734 0.00150302 0.000895465 0.00189714 0.00108824 0.00206177 0.00167862 0.00253734 0.00212942 0.00289404 0.00189714 0.00358597 0.00238021 0.0031513 0.00253734 0.0037811 0.00310957 0.00189714 0.00108824 0.00238021 0.00144283 0.00253734 0.00212942 0.00310957 0.00271002 0.0032851 0.0029506 0.00428321 0.00373408 0.00276169 0.00241921 0.00380356 0.00319132 0.0029506 0.00259768 0.00373408 0.0031513 0.00241921 0.00206177 0.00319132 0.00253734 0.00428321 0.00373408 0.00536653 0.00460186 0.00380356 0.00319132 0.00495319 0.00407534 0.00373408 0.0031513 0.00460186 0.0037811 0.00319132 0.00253734 0.00407534 0.00310957 0.00276169 0.00241921 0.00380356 0.00319132 0.00246839 0.00206306 0.00363077 0.00288823 0.00241921 0.00206177 0.00319132 0.00253734 0.00206306 0.00167862 0.00288823 0.00212942 0.00380356 0.00319132 0.00495319 0.00407534 0.00363077 0.00288823 0.00492616 0.00385594 0.00319132 0.00253734 0.00407534 0.00310957 0.00288823 0.00212942 0.00385594 0.00271002 0.0029947 0.00252329 0.00306892 0.00267697 0.00151709 0.00129471 0.00202454 0.00175828 0.00252329 0.00203165 0.00267697 0.00226926 0.00129471 0.00105442 0.00175828 0.00150302 0.00306892 0.00267697 0.0032851 0.0029506 0.00202454 0.00175828 0.00276169 0.00241921 0.00267697 0.00226926 0.0029506 0.00259768 0.00175828 0.00150302 0.00241921 0.00206177 0.00151709 0.00129471 0.00202454 0.00175828 0.000238267 0.000111217 0.00125418 0.00103279 0.00129471 0.00105442 0.00175828 0.00150302 0.000111217 0.000107029 0.00103279 0.000895465 0.00202454 0.00175828 0.00276169 0.00241921 0.00125418 0.00103279 0.00246839 0.00206306 0.00175828 0.00150302 0.00241921 0.00206177 0.00103279 0.000895465 0.00206306 0.00167862 0.0029947 0.00306892 0.0044632 0.00426755 0.0033661 0.00353852 0.00479878 0.00474125 0.00306892 0.0032851 0.00426755 0.00428321 0.00353852 0.0037659 0.00474125 0.00478204 0.0044632 0.00426755 0.00602373 0.0055586 0.00479878 0.00474125 0.00634481 0.00604732 0.00426755 0.00428321 0.0055586 0.00536653 0.00474125 0.00478204 0.00604732 0.00587458 0.0033661 0.00353852 0.00479878 0.00474125 0.00388867 0.00406328 0.00530892 0.00527964 0.00353852 0.0037659 0.00474125 0.00478204 0.00406328 0.00425334 0.00527964 0.00528038 0.00479878 0.00474125 0.00634481 0.00604732 0.00530892 0.00527964 0.00681834 0.00657518 0.00474125 0.00478204 0.00604732 0.00587458 0.00527964 0.00528038 0.00657518 0.00636781 0.0032851 0.00276169 0.00428321 0.00380356 0.0037659 0.00340112 0.00478204 0.00449095 0.00276169 0.00246839 0.00380356 0.00363077 0.00340112 0.00320574 0.00449095 0.00441491 0.00428321 0.00380356 0.00536653 0.00495319 0.00478204 0.00449095 0.00587458 0.00564747 0.00380356 0.00363077 0.00495319 0.00492616 0.00449095 0.00441491 0.00564747 0.00567665 0.0037659 0.00340112 0.00478204 0.00449095 0.00425334 0.0040268 0.00528038 0.00515352 0.00340112 0.00320574 0.00449095 0.00441491 0.0040268 0.00393231 0.00515352 0.00518363 0.00478204 0.00449095 0.00587458 0.00564747 0.00528038 0.00515352 0.00636781 0.00630115 0.00449095 0.00441491 0.00564747 0.00567665 0.00515352 0.00518363 0.00630115 0.00641975 0.00388867 0.00406328 0.00530892 0.00527964 0.00356534 0.00378835 0.00513989 0.00513426 0.00406328 0.00425334 0.00527964 0.00528038 0.00378835 0.0040268 0.00513426 0.00515352 0.00530892 0.00527964 0.00681834 0.00657518 0.00513989 0.00513426 0.00670259 0.00649486 0.00527964 0.00528038 0.00657518 0.00636781 0.00513426 0.00515352 0.00649486 0.00630115 0.00356534 0.00378835 0.00513989 0.00513426 0.00346381 0.00367846 0.00527464 0.00520063 0.00378835 0.0040268 0.00513426 0.00515352 0.00367846 0.00393231 0.00520063 0.00518363 0.00513989 0.00513426 0.00670259 0.00649486 0.00527464 0.00520063 0.00695625 0.00666161 0.00513426 0.00515352 0.00649486 0.00630115 0.00520063 0.00518363 0.00666161 0.00641975 0.0029947 0.00306892 0.0033661 0.00353852 0.00151709 0.00202454 0.00244445 0.00288996 0.00306892 0.0032851 0.00353852 0.0037659 0.00202454 0.00276169 0.00288996 0.00340112 0.0033661 0.00353852 0.00388867 0.00406328 0.00244445 0.00288996 0.00356534 0.00378835 0.00353852 0.0037659 0.00406328 0.00425334 0.00288996 0.00340112 0.00378835 0.0040268 0.00151709 0.00202454 0.00244445 0.00288996 0.000238267 0.00125418 0.00182932 0.00248856 0.00202454 0.00276169 0.00288996 0.00340112 0.00125418 0.00246839 0.00248856 0.00320574 0.00244445 0.00288996 0.00356534 0.00378835 0.00182932 0.00248856 0.00346381 0.00367846 0.00288996 0.00340112 0.00378835 0.0040268 0.00248856 0.00320574 0.00367846 0.00393231 0.00264822 0.00311779 0.00410055 0.00444146 0.00258595 0.00318506 0.00380413 0.00434072 0.00311779 0.00370113 0.00444146 0.00498008 0.00318506 0.00378111 0.00434072 0.00490069 0.00410055 0.00444146 0.00544792 0.00560531 0.00380413 0.00434072 0.00491988 0.00536788 0.00444146 0.00498008 0.00560531 0.00609282 0.00434072 0.00490069 0.00536788 0.00589514 0.00258595 0.00318506 0.00380413 0.00