# vtk DataFile Version 3.0
#This file was generated by the deal.II library on 2025/4/19 at 2:10:52
ASCII
DATASET UNSTRUCTURED_GRID

POINTS 8192 double
-0.298829 0.0209037 -0.332606
-0.407251 0.0191957 -0.276885
-0.474101 0.0108017 -0.507877
-0.584633 0.0109696 -0.402478
-0.359644 -0.0964369 -0.278592
-0.45316 -0.0849014 -0.236919
-0.536597 -0.144953 -0.410617
-0.622437 -0.123639 -0.334765
-0.407251 0.0191957 -0.276885
-0.510821 0.023783 -0.211846
-0.584633 0.0109696 -0.402478
-0.685648 0.0180816 -0.287601
-0.45316 -0.0849014 -0.236919
-0.542279 -0.0676132 -0.188197
-0.622437 -0.123639 -0.334765
-0.701163 -0.0969019 -0.252623
-0.474101 0.0108017 -0.507877
-0.584633 0.0109696 -0.402478
-0.635286 0.0260077 -0.681078
-0.749765 0.0231317 -0.522006
-0.536597 -0.144953 -0.410617
-0.622437 -0.123639 -0.334765
-0.702041 -0.17667 -0.537238
-0.779904 -0.148058 -0.425224
-0.584633 0.0109696 -0.402478
-0.685648 0.0180816 -0.287601
-0.749765 0.0231317 -0.522006
-0.851441 0.0279459 -0.354658
-0.622437 -0.123639 -0.334765
-0.701163 -0.0969019 -0.252623
-0.779904 -0.148058 -0.425224
-0.850403 -0.114907 -0.309036
-0.359644 -0.0964369 -0.278592
-0.45316 -0.0849014 -0.236919
-0.536597 -0.144953 -0.410617
-0.622437 -0.123639 -0.334765
-0.411136 -0.213248 -0.213197
-0.490446 -0.188768 -0.188717
-0.584927 -0.297662 -0.297611
-0.648541 -0.256685 -0.256634
-0.45316 -0.0849014 -0.236919
-0.542279 -0.0676132 -0.188197
-0.622437 -0.123639 -0.334765
-0.701163 -0.0969019 -0.252623
-0.490446 -0.188768 -0.188717
-0.566693 -0.15959 -0.159529
-0.648541 -0.256685 -0.256634
-0.707668 -0.211926 -0.211865
-0.536597 -0.144953 -0.410617
-0.622437 -0.123639 -0.334765
-0.702041 -0.17667 -0.537238
-0.779904 -0.148058 -0.425224
-0.584927 -0.297662 -0.297611
-0.648541 -0.256685 -0.256634
-0.748413 -0.372522 -0.372467
-0.794992 -0.315774 -0.315719
-0.622437 -0.123639 -0.334765
-0.701163 -0.0969019 -0.252623
-0.779904 -0.148058 -0.425224
-0.850403 -0.114907 -0.309036
-0.648541 -0.256685 -0.256634
-0.707668 -0.211926 -0.211865
-0.794992 -0.315774 -0.315719
-0.838625 -0.257072 -0.257002
-0.510821 0.023783 -0.211846
-0.479942 0.022472 -0.0908567
-0.685648 0.0180816 -0.287601
-0.692424 0.0144596 -0.13397
-0.542279 -0.0676132 -0.188197
-0.513463 -0.0809811 -0.0809022
-0.701163 -0.0969019 -0.252623
-0.700656 -0.117469 -0.11739
-0.479942 0.022472 -0.0908567
-0.44872 0.0243362 0.0243748
-0.692424 0.0144596 -0.13397
-0.694404 0.0143949 0.0144335
-0.513463 -0.0809811 -0.0809022
-0.485601 -0.0915147 0.0219316
-0.700656 -0.117469 -0.11739
-0.698083 -0.134628 0.0139192
-0.685648 0.0180816 -0.287601
-0.692424 0.0144596 -0.13397
-0.851441 0.0279459 -0.354658
-0.899311 0.0255129 -0.161704
-0.701163 -0.0969019 -0.252623
-0.700656 -0.117469 -0.11739
-0.850403 -0.114907 -0.309036
-0.881149 -0.141069 -0.140976
-0.692424 0.0144596 -0.13397
-0.694404 0.0143949 0.0144335
-0.899311 0.0255129 -0.161704
-0.934894 0.02885 0.0288739
-0.700656 -0.117469 -0.11739
-0.698083 -0.134628 0.0139192
-0.881149 -0.141069 -0.140976
-0.904295 -0.16179 0.0255441
-0.542279 -0.0676132 -0.188197
-0.513463 -0.0809811 -0.0809022
-0.701163 -0.0969019 -0.252623
-0.700656 -0.117469 -0.11739
-0.566693 -0.15959 -0.159529
-0.538982 -0.186515 -0.0658073
-0.707668 -0.211926 -0.211865
-0.697867 -0.250941 -0.0950961
-0.513463 -0.0809811 -0.0809022
-0.485601 -0.0915147 0.0219316
-0.700656 -0.117469 -0.11739
-0.698083 -0.134628 0.0139192
-0.538982 -0.186515 -0.0658073
-0.512148 -0.21075 0.024963
-0.697867 -0.250941 -0.0950961
-0.686975 -0.286506 0.0192616
-0.701163 -0.0969019 -0.252623
-0.700656 -0.117469 -0.11739
-0.850403 -0.114907 -0.309036
-0.881149 -0.141069 -0.140976
-0.707668 -0.211926 -0.211865
-0.697867 -0.250941 -0.0950961
-0.838625 -0.257072 -0.257002
-0.848804 -0.308089 -0.113824
-0.700656 -0.117469 -0.11739
-0.698083 -0.134628 0.0139192
-0.881149 -0.141069 -0.140976
-0.904295 -0.16179 0.0255441
-0.697867 -0.250941 -0.0950961
-0.686975 -0.286506 0.0192616
-0.848804 -0.308089 -0.113824
-0.853851 -0.353788 0.0288883
-0.411136 -0.213248 -0.213197
-0.490446 -0.188768 -0.188717
-0.584927 -0.297662 -0.297611
-0.648541 -0.256685 -0.256634
-0.354165 -0.276957 -0.0946954
-0.447681 -0.235285 -0.0831599
-0.531118 -0.408982 -0.143211
-0.616958 -0.333131 -0.121897
-0.490446 -0.188768 -0.188717
-0.566693 -0.15959 -0.159529
-0.648541 -0.256685 -0.256634
-0.707668 -0.211926 -0.211865
-0.447681 -0.235285 -0.0831599
-0.538982 -0.186515 -0.0658073
-0.616958 -0.333131 -0.121897
-0.697867 -0.250941 -0.0950961
-0.584927 -0.297662 -0.297611
-0.648541 -0.256685 -0.256634
-0.748413 -0.372522 -0.372467
-0.794992 -0.315774 -0.315719
-0.531118 -0.408982 -0.143211
-0.616958 -0.333131 -0.121897
-0.697294 -0.536108 -0.17541
-0.775157 -0.424094 -0.146798
-0.648541 -0.256685 -0.256634
-0.707668 -0.211926 -0.211865
-0.794992 -0.315774 -0.315719
-0.838625 -0.257072 -0.257002
-0.616958 -0.333131 -0.121897
-0.697867 -0.250941 -0.0950961
-0.775157 -0.424094 -0.146798
-0.848804 -0.308089 -0.113824
-0.354165 -0.276957 -0.0946954
-0.447681 -0.235285 -0.0831599
-0.531118 -0.408982 -0.143211
-0.616958 -0.333131 -0.121897
-0.298908 -0.332469 0.0211393
-0.40733 -0.276748 0.0194312
-0.474179 -0.507741 0.0110373
-0.584712 -0.402342 0.0112051
-0.447681 -0.235285 -0.0831599
-0.538982 -0.186515 -0.0658073
-0.616958 -0.333131 -0.121897
-0.697867 -0.250941 -0.0950961
-0.40733 -0.276748 0.0194312
-0.512148 -0.21075 0.024963
-0.584712 -0.402342 0.0112051
-0.686975 -0.286506 0.0192616
-0.531118 -0.408982 -0.143211
-0.616958 -0.333131 -0.121897
-0.697294 -0.536108 -0.17541
-0.775157 -0.424094 -0.146798
-0.474179 -0.507741 0.0110373
-0.584712 -0.402342 0.0112051
-0.635367 -0.680938 0.0262989
-0.749845 -0.521867 0.023423
-0.616958 -0.333131 -0.121897
-0.697867 -0.250941 -0.0950961
-0.775157 -0.424094 -0.146798
-0.848804 -0.308089 -0.113824
-0.584712 -0.402342 0.0112051
-0.686975 -0.286506 0.0192616
-0.749845 -0.521867 0.023423
-0.853851 -0.353788 0.0288883
-0.298829 0.0209037 -0.332606
-0.407251 0.0191957 -0.276885
-0.359644 -0.0964369 -0.278592
-0.45316 -0.0849014 -0.236919
-0.135247 0.00130305 -0.158284
-0.314808 0.00163088 -0.136539
-0.255522 -0.139071 -0.139025
-0.393118 -0.118338 -0.118292
-0.407251 0.0191957 -0.276885
-0.510821 0.023783 -0.211846
-0.45316 -0.0849014 -0.236919
-0.542279 -0.0676132 -0.188197
-0.314808 0.00163088 -0.136539
-0.479942 0.022472 -0.0908567
-0.393118 -0.118338 -0.118292
-0.513463 -0.0809811 -0.0809022
-0.359644 -0.0964369 -0.278592
-0.45316 -0.0849014 -0.236919
-0.411136 -0.213248 -0.213197
-0.490446 -0.188768 -0.188717
-0.255522 -0.139071 -0.139025
-0.393118 -0.118338 -0.118292
-0.354165 -0.276957 -0.0946954
-0.447681 -0.235285 -0.0831599
-0.45316 -0.0849014 -0.236919
-0.542279 -0.0676132 -0.188197
-0.490446 -0.188768 -0.188717
-0.566693 -0.15959 -0.159529
-0.393118 -0.118338 -0.118292
-0.513463 -0.0809811 -0.0809022
-0.447681 -0.235285 -0.0831599
-0.538982 -0.186515 -0.0658073
-0.135247 0.00130305 -0.158284
-0.314808 0.00163088 -0.136539
-0.255522 -0.139071 -0.139025
-0.393118 -0.118338 -0.118292
0.0249247 0.0108845 0.0109079
-0.218871 -0.001743 -0.00171956
-0.149209 -0.163249 -0.00359198
-0.32877 -0.141504 -0.00326415
-0.314808 0.00163088 -0.136539
-0.479942 0.022472 -0.0908567
-0.393118 -0.118338 -0.118292
-0.513463 -0.0809811 -0.0809022
-0.218871 -0.001743 -0.00171956
-0.44872 0.0243362 0.0243748
-0.32877 -0.141504 -0.00326415
-0.485601 -0.0915147 0.0219316
-0.255522 -0.139071 -0.139025
-0.393118 -0.118338 -0.118292
-0.354165 -0.276957 -0.0946954
-0.447681 -0.235285 -0.0831599
-0.149209 -0.163249 -0.00359198
-0.32877 -0.141504 -0.00326415
-0.298908 -0.332469 0.0211393
-0.40733 -0.276748 0.0194312
-0.393118 -0.118338 -0.118292
-0.513463 -0.0809811 -0.0809022
-0.447681 -0.235285 -0.0831599
-0.538982 -0.186515 -0.0658073
-0.32877 -0.141504 -0.00326415
-0.485601 -0.0915147 0.0219316
-0.40733 -0.276748 0.0194312
-0.512148 -0.21075 0.024963
0.298682 -0.0212594 0.332251
0.356311 0.0964016 0.264016
0.482547 -0.0494372 0.516116
0.541891 0.115999 0.381054
0.405122 -0.0255106 0.269786
0.44871 0.0811389 0.221718
0.586783 -0.0513753 0.396489
0.623387 0.0972195 0.30787
0.356311 0.0964016 0.264016
0.410656 0.212871 0.212822
0.541891 0.115999 0.381054
0.600298 0.289434 0.289357
0.44871 0.0811389 0.221718
0.48783 0.185647 0.185596
0.623387 0.0972195 0.30787
0.656864 0.24688 0.246813
0.482547 -0.0494372 0.516116
0.541891 0.115999 0.381054
0.635724 -0.026276 0.680808
0.686422 0.167042 0.493391
0.586783 -0.0513753 0.396489
0.623387 0.0972195 0.30787
0.736489 -0.0424235 0.518195
0.7602 0.135425 0.395439
0.541891 0.115999 0.381054
0.600298 0.289434 0.289357
0.686422 0.167042 0.493391
0.739831 0.380951 0.38084
0.623387 0.0972195 0.30787
0.656864 0.24688 0.246813
0.7602 0.135425 0.395439
0.78324 0.31944 0.319347
0.405122 -0.0255106 0.269786
0.44871 0.0811389 0.221718
0.586783 -0.0513753 0.396489
0.623387 0.0972195 0.30787
0.510466 -0.0241247 0.211497
0.539928 0.0689705 0.181668
0.695337 -0.0379422 0.279979
0.708057 0.0842147 0.234651
0.44871 0.0811389 0.221718
0.48783 0.185647 0.185596
0.623387 0.0972195 0.30787
0.656864 0.24688 0.246813
0.539928 0.0689705 0.181668
0.565209 0.160113 0.160049
0.708057 0.0842147 0.234651
0.717521 0.204491 0.204426
0.586783 -0.0513753 0.396489
0.623387 0.0972195 0.30787
0.736489 -0.0424235 0.518195
0.7602 0.135425 0.395439
0.695337 -0.0379422 0.279979
0.708057 0.0842147 0.234651
0.851456 -0.0282072 0.35437
0.8451 0.115463 0.294453
0.623387 0.0972195 0.30787
0.656864 0.24688 0.246813
0.7602 0.135425 0.395439
0.78324 0.31944 0.319347
0.708057 0.0842147 0.234651
0.717521 0.204491 0.204426
0.8451 0.115463 0.294453
0.837284 0.258312 0.258216
0.410656 0.212871 0.212822
0.350503 0.26235 0.0946392
0.600298 0.289434 0.289357
0.536084 0.379405 0.114224
0.48783 0.185647 0.185596
0.442901 0.220053 0.0793753
0.656864 0.24688 0.246813
0.617579 0.306215 0.0954486
0.350503 0.26235 0.0946392
0.298768 0.332102 -0.0214946
0.536084 0.379405 0.114224
0.482633 0.515967 -0.0496724
0.442901 0.220053 0.0793753
0.405208 0.269637 -0.0257457
[...]
POINT_DATA 8192
SCALARS D_0 double 1
LOOKUP_TABLE default
0.00261049 0.00315067 0.00410204 0.00451094 0.00313823 0.003571 0.00462064 0.00488687 0.00315067 0.00372038 0.00451094 0.00496566 0.003571 0.00401924 0.00488687 0.00517944 0.00410204 0.00451094 0.00540886 0.00572216 0.00462064 0.00488687 0.00595633 0.00607086 0.00451094 0.00496566 0.00572216 0.00610264 0.00488687 0.00517944 0.00607086 0.00623926 0.00313823 0.003571 0.00462064 0.00488687 0.00357105 0.00391662 0.00499716 0.00516267 0.003571 0.00401924 0.00488687 0.00517944 0.00391662 0.00427553 0.00516267 0.00534286 0.00462064 0.00488687 0.00595633 0.00607086 0.00499716 0.00516267 0.0063052 0.00629665 0.00488687 0.00517944 0.00607086 0.00623926 0.00516267 0.00534286 0.00629665 0.00631912 0.00372038 0.00340388 0.00496566 0.00487349 0.00401924 0.00370728 0.00517944 0.00502514 0.00340388 0.0031599 0.00487349 0.00484527 0.00370728 0.00343801 0.00502514 0.00490558 0.00496566 0.00487349 0.00610264 0.0062664 0.00517944 0.00502514 0.00623926 0.0062561 0.00487349 0.00484527 0.0062664 0.00647707 0.00502514 0.00490558 0.0062561 0.00629041 0.00401924 0.00370728 0.00517944 0.00502514 0.00427553 0.00398702 0.00534286 0.00514532 0.00370728 0.00343801 0.00502514 0.00490558 0.00398702 0.00371475 0.00514532 0.00495417 0.00517944 0.00502514 0.00623926 0.0062561 0.00534286 0.00514532 0.00631912 0.00621579 0.00502514 0.00490558 0.0062561 0.00629041 0.00514532 0.00495417 0.00621579 0.00609689 0.00357105 0.00391662 0.00499716 0.00516267 0.00309203 0.00352475 0.00456873 0.00483536 0.00391662 0.00427553 0.00516267 0.00534286 0.00352475 0.00398702 0.00483536 0.00514532 0.00499716 0.00516267 0.0063052 0.00629665 0.00456873 0.00483536 0.00590442 0.00602179 0.00516267 0.00534286 0.00629665 0.00631912 0.00483536 0.00514532 0.00602179 0.00621579 0.00309203 0.00352475 0.00456873 0.00483536 0.00259655 0.00313696 0.00407983 0.00449062 0.00352475 0.00398702 0.00483536 0.00514532 0.00313696 0.00371475 0.00449062 0.00495417 0.00456873 0.00483536 0.00590442 0.00602179 0.00407983 0.00449062 0.00537923 0.00569661 0.00483536 0.00514532 0.00602179 0.00621579 0.00449062 0.00495417 0.00569661 0.00609689 0.00261049 0.00315067 0.00313823 0.003571 0.00122187 0.00233382 0.00226346 0.00302158 0.00315067 0.00372038 0.003571 0.00401924 0.00233382 0.00340388 0.00302158 0.00370728 0.00313823 0.003571 0.00357105 0.00391662 0.00226346 0.00302158 0.00309203 0.00352475 0.003571 0.00401924 0.00391662 0.00427553 0.00302158 0.00370728 0.00352475 0.00398702 0.00122187 0.00233382 0.00226346 0.00302158 0.000235503 0.00155332 0.00132431 0.00243776 0.00233382 0.00340388 0.00302158 0.00370728 0.00155332 0.0031599 0.00243776 0.00343801 0.00226346 0.00302158 0.00309203 0.00352475 0.00132431 0.00243776 0.00259655 0.00313696 0.00302158 0.00370728 0.00352475 0.00398702 0.00243776 0.00343801 0.00313696 0.00371475 0.00264895 0.00311925 0.00410112 0.00453476 0.00311854 0.00351936 0.00444159 0.00480141 0.00311925 0.00360707 0.00453476 0.00508468 0.00351936 0.0039097 0.00480141 0.00519916 0.00410112 0.00453476 0.00544818 0.00577048 0.00444159 0.00480141 0.00560556 0.0058901 0.00453476 0.00508468 0.00577048 0.00636195 0.00480141 0.00519916 0.0058901 0.00628808 0.00311854 0.00351936 0.00444159 0.00480141 0.00370226 0.00399338 0.00498088 0.00517901 0.00351936 0.0039097 0.00480141 0.00519916 0.00399338 0.00427571 0.00517901 0.00539387 0.00444159 0.00480141 0.00560556 0.0058901 0.00498088 0.00517901 0.00609341 0.00619575 0.00480141 0.00519916 0.0058901 0.00628808 0.00517901 0.00539387 0.00619575 0.0063448 0.00360707 0.0030711 0.00508468 0.00448025 0.0039097 0.00347051 0.00519916 0.00474887 0.0030711 0.00263449 0.00448025 0.00407619 0.00347051 0.00310607 0.00474887 0.00442157 0.00508468 0.00448025 0.00636195 0.00572169 0.00519916 0.00474887 0.00628808 0.00584201 0.00448025 0.00407619 0.00572169 0.00541392 0.00474887 0.00442157 0.00584201 0.00557939 0.0039097 0.00347051 0.00519916 0.00474887 0.00427571 0.00395489 0.00539387 0.00513957 0.00347051 0.00310607 0.00474887 0.00442157 0.00395489 0.00369263 0.00513957 0.00496757 0.00519916 0.00474887 0.00628808 0.00584201 0.00539387 0.00513957 0.0063448 0.0061594 0.00474887 0.00442157 0.00584201 0.00557939 0.00513957 0.00496757 0.0061594 0.00607826 0.00370226 0.00399338 0.00498088 0.00517901 0.00334157 0.00364448 0.00482535 0.00495902 0.00399338 0.00427571 0.00517901 0.00539387 0.00364448 0.00395489 0.00495902 0.00513957 0.00498088 0.00517901 0.00609341 0.00619575 0.00482535 0.00495902 0.00614831 0.00611145 0.00517901 0.00539387 0.00619575 0.0063448 0.00495902 0.00513957 0.00611145 0.0061594 0.00334157 0.00364448 0.00482535 0.00495902 0.00309648 0.00337714 0.00484763 0.00486017 0.00364448 0.00395489 0.00495902 0.00513957 0.00337714 0.00369263 0.00486017 0.00496757 0.00482535 0.00495902 0.00614831 0.00611145 0.00484763 0.00486017 0.00642548 0.00617669 0.00495902 0.00513957 0.00611145 0.0061594 0.00486017 0.00496757 0.00617669 0.00607826 0.00264895 0.00311925 0.00311854 0.00351936 0.00122476 0.00220319 0.00229892 0.00294455 0.00311925 0.00360707 0.00351936 0.0039097 0.00220319 0.0030711 0.00294455 0.00347051 0.00311854 0.00351936 0.00370226 0.00399338 0.00229892 0.00294455 0.00334157 0.00364448 0.00351936 0.0039097 0.00399338 0.00427571 0.00294455 0.00347051 0.00364448 0.00395489 0.00122476 0.00220319 0.00229892 0.00294455 0.000235503 0.00132361 0.00158763 0.00240112 0.00220319 0.0030711 0.00294455 0.00347051 0.00132361 0.00263449 0.00240112 0.00310607 0.00229892 0.00294455 0.00334157 0.00364448 0.00158763 0.00240112 0.00309648 0.00337714 0.00294455 0.00347051 0.00364448 0.00395489 0.00240112 0.00310607 0.00337714 0.00369263 0.00247313 0.00274088 0.00363896 0.00378022 0.00320896 0.00336681 0.00441584 0.0044542 0.00274088 0.00329002 0.00378022 0.00428656 0.00336681 0.00374954 0.0044542 0.00476231 0.00363896 0.00378022 0.0049381 0.00492857 0.00441584 0.0044542 0.00568057 0.00560417 0.00378022 0.00428656 0.00492857 0.0053763 0.0044542 0.00476231 0.00560417 0.00585009 0.00320896 0.00336681 0.00441584 0.0044542 0.00393328 0.00399493 0.00518124 0.00511823 0.00336681 0.00374954 0.0044542 0.00476231 0.00399493 0.00423578 0.00511823 0.00525676 0.00441584 0.0044542 0.00568057 0.00560417 0.00518124 0.00511823 0.0064153 0.0062544 0.0044542 0.00476231 0.00560417 0.00585009 0.00511823 0.00525676 0.0062544 0.00633235 0.00329002 0.00310222 0.00428656 0.00430076 0.00374954 0.00353948 0.00476231 0.00473835 0.00310222 0.00301374 0.00430076 0.00447894 0.00353948 0.00336131 0.00473835 0.00477933 0.00428656 0.00430076 0.0053763 0.00560038 0.00476231 0.00473835 0.00585009 0.00603193 0.00430076 0.00447894 0.00560038 0.00604531 0.00473835 0.00477933 0.00603193 0.00629793 0.00374954 0.00353948 0.00476231 0.00473835 0.00423578 0.0040567 0.00525676 0.00527168 0.00353948 0.00336131 0.00473835 0.00477933 0.0040567 0.00388468 0.00527168 0.00530156 0.00476231 0.00473835 0.00585009 0.00603193 0.00525676 0.00527168 0.00633235 0.00654621 0.00473835 0.00477933 0.00603193 0.00629793 0.00527168 0.00530156 0.00654621 0.0067807 0.00393328 0.00399493 0.00518124 0.00511823 0.00367283 0.00375109 0.00519387 0.00510337 0.00399493 0.00423578 0.00511823 0.00525676 0.00375109 0.0040567 0.00510337 0.00527168 0.00518124 0.00511823 0.0064153 0.0062544 0.00519387 0.00510337 0.00665116 0.00644599 0.00511823 0.00525676 0.0062544 0.00633235 0.00510337 0.00527168 0.00644599 0.00654621 0.00367283 0.00375109 0.00519387 0.00510337 0.00346248 0.00353121 0.00527478 0.0051184 0.00375109 0.0040567 0.00510337 0.00527168 0.00353121 0.00388468 0.0051184 0.00530156 0.00519387 0.00510337 0.00665116 0.00644599 0.00527478 0.0051184 0.00695689 0.00666968 0.00510337 0.00527168 0.00644599 0.00654621 0.0051184 0.00530156 0.00666968 0.0067807 0.00247313 0.00274088 0.00320896 0.00336681 0.00125494 0.00203781 0.00248249 0.00286051 0.00274088 0.00329002 0.00336681 0.00374954 0.00203781 0.00310222 0.00286051 0.00353948 0.00320896 0.00336681 0.00393328 0.00399493 0.00248249 0.00286051 0.00367283 0.00375109 0.00336681 0.00374954 0.00399493 0.00423578 0.00286051 0.00353948 0.00375109 0.0040567 0.00125494 0.00203781 0.00248249 0.00286051 0.000235503 0.00155252 0.00182704 0.002413 0.00203781 0.00310222 0.00286051 0.00353948 0.00155252 0.00301374 0.002413 0.00336131 0.00248249 0.00286051 0.00367283 0.00375109 0.00182704 0.002413 0.00346248 0.00353121 0.00286051 0.00353948 0.00375109 0.0040567 0.002413 0.00336131 0.00353121 0.00388468 0.00232094 0.00305062 0.00356682 0.00429806 0.00263874 0.00324098 0.00374026 0.00435971 0.00305062 0.00377836 0.00429806 0.00500789 0.00324098 0.0038735 0.00435971 0.00499195 0.00356682 0.00429806 0.00478189 0.00554979 0.00374026 0.00435971 0.00487645 0.00551523 0.00429806 0.00500789 0.00554979 0.00625931 0.00435971 0.00499195 0.00551523 0.00614598 0.00263874 0.00324098 0.00374026 0.00435971 0.00313056 0.00357204 0.00414434 0.0045951 0.00324098 0.0038735 0.00435971 0.00499195 0.00357204 0.00407239 0.0045951 0.00509305 0.00374026 0.00435971 0.00487645 0.00551523 0.00414434 0.0045951 0.00521732 0.00567197 0.00435971 0.00499195 0.00551523 0.00614598 0.0045951 0.00509305 0.00567197 0.00617102 0.00377836 0.00355907 0.00500789 0.00504179 0.0038735 0.00366717 0.00499195 0.00500313 0.00355907 0.00330588 0.00504179 0.00502062 0.00366717 0.00344233 0.00500313 0.00498727 0.00500789 0.00504179 0.00625931 0.00657308 0.00499195 0.00500313 0.00614598 0.00640164 0.00504179 0.00502062 0.00657308 0.00679322 0.00500313 0.00498727 0.00640164 0.00662011 0.0038735 0.00366717 0.00499195 0.00500313 0.00407239 0.00389618 0.00509305 0.00510894 0.00366717 0.00344233 0.00500313 0.00498727 0.00389618 0.00372094 0.00510894 0.00511963 0.00499195 0.00500313 0.00614598 0.00640164 0.00509305 0.00510894 0.00617102 0.00639729 0.00500313 0.00498727 0.00640164 0.00662011 0.00510894 0.00511963 0.00639729 0.00661821 0.00313056 0.00357204 0.00414434 0.0045951 0.00295829 0.00336594 0.00420306 0.00459005 0.00357204 0.00407239 0.0045951 0.00509305 0.00336594 0.00389618 0.00459005 0.00510894 0.00414434 0.0045951 0.00521732 0.00567197 0.00420306 0.00459005 0.00552553 0.00589051 0.0045951 0.00509305 0.00567197 0.00617102 0.00459005 0.00510894 0.00589051 0.00639729 0.00295829 0.00336594 0.00420306 0.00459005 0.00287978 0.00318023 0.0043481 0.00460403 0.00336594 0.00389618 0.00459005 0.00510894 0.00318023 0.00372094 0.00460403 0.00511963 0.00420306 0.00459005 0.00552553 0.00589051 0.0043481 0.00460403 0.0059125 0.00611887 0.00459005 0.00510894 0.00589051 0.00639729 0.00460403 0.00511963 0.00611887 0.00661821 0.00232094 0.00305062 0.00263874 0.00324098 0.00116186 0.00234843 0.00193623 0.00274175 0.00305062 0.00377836 0.00324098 0.0038735 0.00234843 0.00355907 0.00274175 0.00366717 0.00263874 0.00324098 0.00313056 0.00357204 0.00193623 0.00274175 0.00295829 0.00336594 0.00324098 0.0038735 0.00357204 0.00407239 0.00274175 0.00366717 0.00336594 0.00389618 0.00116186 0.00234843 0.00193623 0.00274175 0.000235503 0.00160386 0.00141257 0.00225483 0.00234843 0.00355907 0.00274175 0.00366717 0.00160386 0.00330588 0.00225483 0.00344233 0.00193623 0.00274175 0.00295829 0.00336594 0.00141257 0.00225483 0.00287978 0.00318023 0.00274175 0.00366717 0.00336594 0.00389618 0.00225483 0.00344233 0.00318023 0.00372094 5.29215e-05 0.000927684 8.68616e-05 0.00129998 0.000736665 0.0013327 0.00105719 0.00179457 0.000927684 0.00189903 0.00129998 0.00262089 0.0013327 0.002099 0.00179457 0.00275504 8.68616e-05 0.00129998 4.44802e-05 0.00169208 0.00105719 0.00179457 0.00125182 0.00222645 0.00129998 0.00262089 0.00169208 0.00337597 0.00179457 0.00275504 0.00222645 0.0034237 0.000736665 0.0013327 0.00105719 0.00179457 0.00153115 0.00190691 0.00207901 0.0024553 0.0013327 0.002099 0.00179457 0.00275504 0.00190691 0.0024248 0.0024553 0.00300918 0.00105719 0.00179457 0.00125182 0.00222645 0.00207901 0.0024553 0.0025609 0.00298468 0.00179457 0.00275504 0.00222645 0.0034237 0.0024553 0.00300918 0.00298468 0.00360684 0.00189903 0.00238908 0.00262089 0.00350092 0.002099 0.00252473 0.00275504 0.00348228 0.00238908 0.00286372 0.00350092 0.00433725 0.00252473 0.00292797 0.00348228 0.0041769 0.00262089 0.00350092 0.00337597 0.0046699 0.00275504 0.00348228 0.0034237 0.00447479 0.00350092 0.00433725 0.0046699 0.00589518 0.00348228 0.0041769 0.00447479 0.00548699 0.002099 0.00252473 0.00275504 0.00348228 0.0024248 0.00278537 0.00300918 0.00358529 0.00252473 0.00292797 0.00348228 0.0041769 0.00278537 0.00312898 0.00358529 0.00414475 0.00275504 0.00348228 0.0034237 0.00447479 0.00300918 0.00358529 0.00360684 0.00441156 0.00348228 0.0041769 0.00447479 0.00548699 0.00358529 0.00414475 0.00441156 0.0052127 0.00153115 0.00190691 0.00207901 0.0024553 0.00194014 0.00228121 0.00283393 0.00310439 0.00190691 0.0024248 0.0024553 0.00300918 0.00228121 0.00278537 0.00310439 0.00358529 0.00207901 0.0024553 0.0025609 0.00298468 0.00283393 0.00310439 0.00367832 0.00393383 0.0024553 0.00300918 0.00298468 0.00360684 0.00310439 0.00358529 0.00393383 0.00441156 0.00194014 0.00228121 0.00283393 0.00310439 0.00231784 0.00263352 0.00356245 0.00373667 0.00228121 0.00278537 0.00310439 0.00358529 0.00263352 0.00312898 0.00373667 0.00414475 0.00283393 0.00310439 0.00367832 0.00393383 0.00356245 0.00373667 0.00477965 0.00487272 0.00310439 0.00358529 0.00393383 0.00441156 0.00373667 0.00414475 0.00487272 0.0052127 5.29215e-05 0.000927684 0.000736665 0.0013327 9.93163e-05 0.00116267 0.00100873 0.00163553 0.000927684 0.00189903 0.0013327 0.002099 0.00116267 0.00238908 0.00163553 0.00252473 0.000736665 0.0013327 0.00153115 0.00190691 0.00100873 0.00163553 0.00194014 0.00228121 0.0013327 0.002099 0.00190691 0.0024248 0.00163553 0.00252473 0.00228121 0.00278537 9.93163e-05 0.00116267 0.00100873 0.00163553 0.000235503 0.00138917 0.00117312 0.00190509 0.00116267 0.00238908 0.00163553 0.00252473 0.00138917 0.00286372 0.00190509 0.00292797 0.00100873 0.00163553 0.00194014 0.00228121 0.00117312 0.00190509 0.00231784 0.00263352 0.00163553 0.00252473 0.00228121 0.00278537 0.00190509 0.00292797 0.00263352 0.00312898 0.00299497 0.0025246 0.00446479 0.00363277 0.00306783 0.00267601 0.00426715 0.00359611 0.0025246 0.0020322 0.00363277 0.00275371 0.00267601 0.00226846 0.00359611 0.00289343 0.00446479 0.00363277 0.00602441 0.00480319 0.00426715 0.00359611 0.00555912 0.00459915 0.00363277 0.00275371 0.00480319 0.00351351 0.00359611 0.00289343 0.00459915 0.00358626 0.00306783 0.00267601 0.00426715 0.00359611 0.00328365 0.00294929 0.00428238 0.00373312 0.00267601 0.00226846 0.00359611 0.00289343 0.00294929 0.00259682 0.00373312 0.00315106 0.00426715 0.00359611 0.00555912 0.00459915 0.00428238 0.00373312 0.00536697 0.00460191 0.00359611 0.00289343 0.00459915 0.00358626 0.00373312 0.00315106 0.00460191 0.00378165 0.0020322 0.00105545 0.00275371 0.00142863 0.00226846 0.00150203 0.00289343 0.00189678 0.00105545 0.000108435 0.00142863 0.000124823 0.00150203 0.000894677 0.00189678 0.00108722 0.00275371 0.00142863 0.00351351 0.00181736 0.00289343 0.00189678 0.00358626 0.00238052 0.00142863 0.000124823 0.00181736 0.000117291 0.00189678 0.00108722 0.00238052 0.00144253 0.00226846 0.00150203 0.00289343 0.00189678 0.00259682 0.00206077 0.00315106 0.00253715 0.00150203 0.000894677 0.00189678 0.00108722 0.00206077 0.00167783 0.00253715 0.00212854 0.00289343 0.00189678 0.00358626 0.00238052 0.00315106 0.00253715 0.00378165 0.00311002 0.00189678 0.00108722 0.00238052 0.00144253 0.00253715 0.00212854 0.00311002 0.00271005 0.00328365 0.00294929 0.00428238 0.00373312 0.00276064 0.00241818 0.00380311 0.00319082 0.00294929 0.00259682 0.00373312 0.00315106 0.00241818 0.00206077 0.00319082 0.00253715 0.00428238 0.00373312 0.00536697 0.00460191 0.00380311 0.00319082 0.00495376 0.00407577 0.00373312 0.00315106 0.00460191 0.00378165 0.00319082 0.00253715 0.00407577 0.00311002 0.00276064 0.00241818 0.00380311 0.00319082 0.00246792 0.00206253 0.00363009 0.00288759 0.00241818 0.00206077 0.00319082 0.00253715 0.00206253 0.00167783 0.00288759 0.00212854 0.00380311 0.00319082 0.00495376 0.00407577 0.00363009 0.00288759 0.00492625 0.0038562 0.00319082 0.00253715 0.00407577 0.00311002 0.00288759 0.00212854 0.0038562 0.00271005 0.00299497 0.0025246 0.00306783 0.00267601 0.00151779 0.00129617 0.0020233 0.00175685 0.0025246 0.0020322 0.00267601 0.00226846 0.00129617 0.00105545 0.00175685 0.00150203 0.00306783 0.00267601 0.00328365 0.00294929 0.0020233 0.00175685 0.00276064 0.00241818 0.00267601 0.00226846 0.00294929 0.00259682 0.00175685 0.00150203 0.00241818 0.00206077 0.00151779 0.00129617 0.0020233 0.00175685 0.000235503 0.000110902 0.00125188 0.00103109 0.00129617 0.00105545 0.00175685 0.00150203 0.000110902 0.000108435 0.00103109 0.000894677 0.0020233 0.00175685 0.00276064 0.00241818 0.00125188 0.00103109 0.00246792 0.00206253 0.00175685 0.00150203 0.00241818 0.00206077 0.00103109 0.000894677 0.00206253 0.00167783 0.00299497 0.00306783 0.00446479 0.00426715 0.00336472 0.00353719 0.00479816 0.0047405 0.00306783 0.00328365 0.00426715 0.00428238 0.00353719 0.00376413 0.0047405 0.00478102 0.00446479 0.00426715 0.00602441 0.00555912 0.00479816 0.0047405 0.00634515 0.00604812 0.00426715 0.00428238 0.00555912 0.00536697 0.0047405 0.00478102 0.00604812 0.00587485 0.00336472 0.00353719 0.00479816 0.0047405 0.00388695 0.00406167 0.00530797 0.00527887 0.00353719 0.00376413 0.0047405 0.00478102 0.00406167 0.00425198 0.00527887 0.00527981 0.00479816 0.0047405 0.00634515 0.00604812 0.00530797 0.00527887 0.00681897 0.00657612 0.0047405 0.00478102 0.00604812 0.00587485 0.00527887 0.00527981 0.00657612 0.00636869 0.00328365 0.00276064 0.00428238 0.00380311 0.00376413 0.00339972 0.00478102 0.00449069 0.00276064 0.00246792 0.00380311 0.00363009 0.00339972 0.00320424 0.00449069 0.00441353 0.00428238 0.00380311 0.00536697 0.00495376 0.00478102 0.00449069 0.00587485 0.00564777 0.00380311 0.00363009 0.00495376 0.00492625 0.00449069 0.00441353 0.00564777 0.00567606 0.00376413 0.00339972 0.00478102 0.00449069 0.00425198 0.00402539 0.00527981 0.00515331 0.00339972 0.00320424 0.00449069 0.00441353 0.00402539 0.00393084 0.00515331 0.00518226 0.00478102 0.00449069 0.00587485 0.00564777 0.00527981 0.00515331 0.00636869 0.00630172 0.00449069 0.00441353 0.00564777 0.00567606 0.00515331 0.00518226 0.00630172 0.00641948 0.00388695 0.00406167 0.00530797 0.00527887 0.0035632 0.0037873 0.00513886 0.00513428 0.00406167 0.00425198 0.00527887 0.00527981 0.0037873 0.00402539 0.00513428 0.00515331 0.00530797 0.00527887 0.00681897 0.00657612 0.00513886 0.00513428 0.0067031 0.00649575 0.00527887 0.00527981 0.00657612 0.00636869 0.00513428 0.00515331 0.00649575 0.00630172 0.0035632 0.0037873 0.00513886 0.00513428 0.00346248 0.00367712 0.00527478 0.0052 0.0037873 0.00402539 0.00513428 0.00515331 0.00367712 0.00393084 0.0052 0.00518226 0.00513886 0.00513428 0.0067031 0.00649575 0.00527478 0.0052 0.00695689 0.00666207 0.00513428 0.00515331 0.00649575 0.00630172 0.0052 0.00518226 0.00666207 0.00641948 0.00299497 0.00306783 0.00336472 0.00353719 0.00151779 0.0020233 0.00244275 0.00288822 0.00306783 0.00328365 0.00353719 0.00376413 0.0020233 0.00276064 0.00288822 0.00339972 0.00336472 0.00353719 0.00388695 0.00406167 0.00244275 0.00288822 0.0035632 0.0037873 0.00353719 0.00376413 0.00406167 0.00425198 0.00288822 0.00339972 0.0037873 0.00402539 0.00151779 0.0020233 0.00244275 0.00288822 0.000235503 0.00125188 0.00182704 0.00248598 0.0020233 0.00276064 0.00288822 0.00339972 0.00125188 0.00246792 0.00248598 0.00320424 0.00244275 0.00288822 0.0035632 0.0037873 0.00182704 0.00248598 0.00346248 0.00367712 0.00288822 0.00339972 0.0037873 0.00402539 0.00248598 0.00320424 0.00367712 0.00393084 0.00264895 0.00311854 0.00410112 0.00444159 0.00258733 0.00318628 0.00380515 0.00434117 0.00311854 0.00370226 0.00444159 0.00498088 0.00318628 0.00378232 0.00434117 0.00490163 0.00410112 0.00444159 0.00544818 0.00560556 0.00380515 0.00434117 0.00492039 0.0053679 0.00444159 0.00498088 0.00560556 0.00609341 0.00434117 0.00490163 0.0053679 0.00589531 0.00258733 0.00318628 0.00380515 0.00434117 0.002